LAMMPS (30 Jul 2016)
# Sets up LAMMPS simulation for transient melting of ice: TIP4P/Ice
# Ensure cold thermostats do not move
# Thinbox: 16x1x1
# Defects
# Order param l=2

#### setting MD parameters ####
units real
boundary p p p
atom_style full

# read ice box in restart file
### read the equilibrated NPT restart file

read_restart restart.state
  orthogonal box = (0.411719 0.0222169 0.0209454) to (435.663 23.509 22.1636)
  32 by 1 by 1 MPI processor grid
  20736 atoms
  13824 bonds
  6912 angles
  2 = max # of 1-2 neighbors
  1 = max # of 1-3 neighbors
  1 = max # of 1-4 neighbors
  2 = max # of special neighbors


#### force field definition ####
pair_style      lj/cut/tip4p/long 2 1 1 1 0.1577 10.0
pair_modify	tail yes

kspace_style	pppm/tip4p 1.0e-6

bond_style	harmonic
angle_style	harmonic
dihedral_style	none
improper_style	none

bond_coeff	1 450.0 0.9572
angle_coeff	1 55.0 104.52


# reset pair coeff
pair_coeff	* * 0.0 0.0

#OO
pair_coeff	2 2 0.21085 3.1668
#OH
pair_coeff	* 1 0.0000 0.0000

neighbor        2.0 bin
neigh_modify    every 1 delay 1 check no

timestep	2.0
fix		constraints all shake 0.000001 20 0 b 1 a 1
  0 = # of size 2 clusters
  0 = # of size 3 clusters
  0 = # of size 4 clusters
  6912 = # of frozen angles

group water type 1 2
20736 atoms in group water

#*********** SIMULATION PARAMETER TO ADJUST ****************
#Box dimensions
variable lx equal lx
variable ly equal ly
variable lz equal lz

### Temperature of the hot and cold regions ####
variable thi equal 375
variable tlo equal 215
variable runpressure equal 0.986923


# Configuration equilibrated in density and temperature

# Define dx here

variable lx equal lx
variable ly equal ly
variable lz equal lz

variable xlo equal xlo
variable xhi equal xhi

variable boxcentre equal ${xlo}+(${xhi}-${xlo})/2
variable boxcentre equal 0.411718601417249+(${xhi}-${xlo})/2
variable boxcentre equal 0.411718601417249+(435.663481398576-${xlo})/2
variable boxcentre equal 0.411718601417249+(435.663481398576-0.411718601417249)/2

variable dx equal 2.0

#### ADD IN DEFECTS AT THE CENTRE OF THE HOT THERMOSTAT #####
variable y1 equal ${ly}/2.0
variable y1 equal 23.4867662291562/2.0
variable z1 equal ${lz}/2.0
variable z1 equal 22.1426091916572/2.0

region kill1 sphere ${boxcentre} ${y1} ${z1} 3
region kill1 sphere 218.037599999997 ${y1} ${z1} 3
region kill1 sphere 218.037599999997 11.7433831145781 ${z1} 3
region kill1 sphere 218.037599999997 11.7433831145781 11.0713045958286 3
delete_atoms region kill1 compress no bond yes mol yes
Deleted 9 atoms, new total = 20727
Deleted 6 bonds, new total = 13818
Deleted 3 angles, new total = 6909
############


variable thip equal ${thi}*2.0/3.0
variable thip equal 375*2.0/3.0
variable tlop equal ${tlo}*2.0/3.0
variable tlop equal 215*2.0/3.0
variable hbl equal ${boxcentre}-${dx}
variable hbl equal 218.037599999997-${dx}
variable hbl equal 218.037599999997-2
variable hbh equal ${boxcentre}+${dx}
variable hbh equal 218.037599999997+${dx}
variable hbh equal 218.037599999997+2

#***************************************************
## EQUILIBRATION PERIOD - to reach the steady state ###
#run 0

#reset the timestep to start your production run
reset_timestep 0

# define a group to perform averages
#group s1 type 1
###*** SYSTEM THERMOSTATTING: HOT and COLD regions ***###

fix NVE all nve
fix PRESS all press/berendsen aniso ${runpressure} ${runpressure} 500000 couple yz
fix PRESS all press/berendsen aniso 0.986923 ${runpressure} 500000 couple yz
fix PRESS all press/berendsen aniso 0.986923 0.986923 500000 couple yz


### Apply THERMOSTATS ###

#set up the "hot region" in the middle of the box
region hot block ${hbl} ${hbh} 0 ${ly} 0 ${lz} units box
region hot block 216.037599999997 ${hbh} 0 ${ly} 0 ${lz} units box
region hot block 216.037599999997 220.037599999997 0 ${ly} 0 ${lz} units box
region hot block 216.037599999997 220.037599999997 0 23.4867662291562 0 ${lz} units box
region hot block 216.037599999997 220.037599999997 0 23.4867662291562 0 22.1426091916572 units box


#set up the "cold region" at the left end of the box
#region cold block ${cbl} ${cbh} 0 ${ly} 0 ${lz} units box

#set up the "cold region" at the right end of the box
#region cold2 block ${h2bl} ${xhi} 0 ${ly} 0 ${lz} units box


#Cold regions  unification
#region cold union 2 cold1 cold2 units box

#Create group of cold molecules
####group cool_ice region cold
####group cool_ice include molecule

####compute cold_temp cool_ice temp
####fix cold_rescale water temp/rescale 1 ${tlo} ${tlo} 0.0001 1.0
####fix_modify cold_rescale temp cold_temp

#this calculates the temperature using only the atoms in the "hot region"
#compute hot_temp all temp/region hot

# calculate the temperature using only WATER in the "hot region"
compute hot_temp water temp/region hot

#this calculates the temperature using only WATER in the "cold region"
#compute cold_temp water temp/region cold


#set up a basic velocity rescale for the hot region WATER with thip
fix hot_rescale water temp/rescale 1 ${thip} ${thip} 1.0 1.0
fix hot_rescale water temp/rescale 1 250 ${thip} 1.0 1.0
fix hot_rescale water temp/rescale 1 250 250 1.0 1.0
#change the thermostat to only act on the "hot region"
#this is done by passing it the "hot temp" compute that we defined above
fix_modify hot_rescale temp hot_temp

#set up a basic velocity rescale for the cold region
#fix cold_rescale water temp/rescale 1 ${tlop} ${tlop} 1.0 1.0
#change the thermostat to only act on the "cold region"
#this is done by passing it the "cold temp" compute that we defined above
#fix_modify cold_rescale temp cold_temp

### Ensure MOMENTUM CONSERVATION ###

#ensure that linear momentum is conserved despite the "thermostatting" by velocity rescaling
fix cons_mom all momentum 1 linear 1 1 1


thermo 100
thermo_style custom step pe etotal temp atoms vol press pxx pyy pzz lx ly lz xlo xhi  f_hot_rescale

group ox type 2
6909 atoms in group ox
group hy type 1
13818 atoms in group hy
compute KE all ke/atom
variable TEMP atom c_KE*4186.8/(1.3806488*6.02214129)

compute cc1 all chunk/atom bin/1d x center 2 units box
#fix TPROFILE all ave/chunk 1 500 500 cc1 v_TEMP density/number file temp.dat
fix TPROFILEox ox ave/chunk 1 500 500 cc1 v_TEMP density/number file temp-ox.dat
fix TPROFILEhy hy ave/chunk 1 500 500 cc1 v_TEMP density/number file temp-hy.dat

compute orderparam ox orientorder/atom degrees 1 2 nnn 4 cutoff 3.5
compute cc2 ox chunk/atom bin/1d x center 2 units box
#fix ORDERPARAM all ave/chunk 1 500 500 cc2 c_orderparam[1] file order-param.dat
fix ORDERPARAM all ave/chunk 1 500 500 cc2 c_orderparam[1] file order-param.dat

restart 50000 config.restart

run 500000
PPPM initialization ...
  extracting TIP4P info from pair style
WARNING: Using 12-bit tables for long-range coulomb (../kspace.cpp:316)
  G vector (1/distance) = 0.345595
  grid = 405 48 48
  stencil order = 5
  estimated absolute RMS force accuracy = 0.000406105
  estimated relative force accuracy = 1.22297e-06
  using double precision FFTs
  3d grid and FFT values/proc = 67260 38880
Neighbor list info ...
  2 neighbor list requests
  update every 1 steps, delay 1 steps, check no
  max neighbors/atom: 2000, page size: 100000
  master list distance cutoff = 12.3154
  ghost atom cutoff = 12.3154
  binsize = 6.1577 -> bins = 71 4 4
Memory usage per processor = 12.7906 Mbytes
Step PotEng TotEng Temp Atoms Volume Press Pxx Pyy Pzz Lx Ly Lz Xlo Xhi hot_resc 
       0   -103885.12   -95125.883    212.67585    20727    226356.29    8.8597108   -201.04321    122.50604     105.1163    435.25176    23.486766    22.142609    0.4117186    435.66348            0 
     100   -103789.49   -94881.531    216.28692    20727    226481.23    61.601377    15.155412     96.26589     73.38283    435.44805    23.487952    22.143727   0.31357598    435.76162   -249.85345 
     200   -103649.91   -94853.079     213.5886    20727    226369.16    -33.55246    57.739037   -24.704722   -133.69169    435.19152     23.48906    22.144771   0.44184031    435.63336   -274.46729 
     300   -103719.22   -94797.676    216.61683    20727     226563.8   -13.137529   -19.680477   -81.540726    61.808616    435.36572    23.494454    22.149857   0.35473968    435.72046   -328.32825 
     400   -103599.28   -94732.997    215.27496    20727       226513    35.406139   -19.824022   -106.86619    232.90863    435.31651    23.493148    22.148626   0.37934405    435.69586   -396.11256 
     500   -103741.88   -94737.184    218.63577    20727    226494.54   0.88964517  -0.33419785   -46.020976    49.024109    435.20507    23.495198    22.150559   0.43506729    435.64013   -393.62549 
     600   -103612.44   -94652.506    217.54885    20727    226376.51   -24.060557   -71.511189   -172.14459    171.47411    435.15988    23.490295    22.145936   0.45765863    435.61754   -477.94342 
     700   -103593.26   -94596.229    218.44955    20727    226501.18    27.033101   -39.101868     85.12759    35.073582    435.43728    23.489277    22.144976   0.31896026    435.75624   -535.69219 
     800   -103604.91   -94595.983    218.73836    20727    226522.77  -0.23662792    -223.4492    198.24875    24.490574    435.04809    23.500901    22.155935   0.51355604    435.56164   -534.86847 
     900   -103636.34   -94566.542    220.21631    20727    226448.91    34.142633    -12.15889    81.645468     32.94132    435.32439    23.489612    22.145292    0.3754057    435.69979   -569.91767 
    1000    -103592.4   -94548.947    219.57656    20727    226508.73    21.201529    253.63844    3.2774114   -193.31126    435.44563    23.489443    22.145133   0.31478604    435.76041   -585.08767 
    1100   -103515.52   -94487.614    219.19922    20727    226499.75   -44.781818   -6.4527716     11.49647   -139.38915    435.30734    23.492708    22.148211   0.38393155    435.69127   -644.68477 
    1200   -103463.37   -94453.186    218.76886    20727    226571.24    10.878234   -49.104884    8.4022475    73.337338     435.2638    23.497591    22.152814   0.40570184     435.6695   -679.31276 
    1300   -103508.24   -94446.874    220.01163    20727    226483.88    31.717822      71.8873   -137.84459    161.11075    435.49195    23.486905     22.14274   0.29162389    435.78358   -691.01631 
    1400   -103516.34   -94408.004    221.15199    20727    226433.59   -2.1671777    36.174339    3.1984862   -45.874359    435.27888    23.490045      22.1457   0.39815935    435.67704   -729.79006 
    1500   -103452.17   -94399.984    219.78878    20727    226434.11   -51.014373    83.039983    -18.28043   -217.80267    435.06757    23.495776    22.151103    0.5038158    435.57138   -737.73755 
    1600   -103490.24   -94385.455    221.06576    20727     226562.7    26.448047    55.084719    88.477313   -64.217891    435.44266    23.492322    22.147847   0.31627192    435.75893   -753.03369 
    1700   -103482.06   -94372.892    221.17216    20727    226311.03   -43.741583   -47.112688    126.09083   -210.20289    435.29649    23.483212    22.139258   0.38935635    435.68584   -769.39293 
    1800   -103486.64   -94388.009    220.91635    20727    226539.96   -13.630973    185.41434    55.850238    -282.1575    435.30588    23.494833    22.150214   0.38465794    435.69054   -750.73641 
    1900   -103436.41   -94369.252    220.15223    20727    226626.26    104.13261    102.30447    72.469678    137.62367    435.38894    23.497066     22.15232    0.3431318    435.73207    -774.6262 
    2000   -103470.83   -94358.249    221.25513    20727    226397.27   -83.510618   -5.0771373   -88.512175   -156.94254    435.33135    23.486745    22.142589   0.37192269    435.70328   -783.83894 
    2100   -103466.61   -94301.423    222.53241    20727    226661.36    33.841581   -126.36567    42.912051    184.97836    435.62506    23.492516     22.14803   0.22507212    435.85013   -841.25462 
    2200   -103458.86   -94282.244    222.80991    20727    226471.39   -9.9786951    142.42165    21.566128   -193.92386    435.26475    23.492387    22.147908   0.40522415    435.66998    -862.9912 
    2300   -103542.47   -94281.379    224.86108    20727    226520.13   -90.545739   -46.018965   -5.8948027   -219.72345      435.311    23.493666    22.149114   0.38209853     435.6931   -860.24929 
    2400   -103384.97   -94242.206    221.98809    20727    226654.48   -5.1730257   -194.42807   -127.74424    306.65324    435.45805    23.496664     22.15194   0.30857281    435.76663   -901.45798 
    2500   -103310.48   -94163.593    222.08797    20727    226598.88     2.536007    102.13874    35.181437   -129.71216    435.31964    23.497517    22.152745   0.37778215    435.69742   -980.47841 
    2600   -103338.98    -94108.96    224.10664    20727    226499.35    12.489571    112.41477    52.523792   -127.46985    435.38413    23.490616    22.146238   0.34553354    435.72967   -1037.8242 
    2700   -103349.61   -94122.512     224.0356    20727    226641.58    22.944122    23.498552   -80.693917    126.02773     435.4129    23.497214    22.152459   0.33115081    435.74405   -1022.8584 
    2800   -103245.15   -94093.057    222.21439    20727    226477.72   -57.257519   -40.933047    82.876091    -213.7156    435.28715     23.49211    22.147648   0.39402432    435.68118   -1052.4476 
    2900    -103278.5   -94079.941    223.34276    20727     226653.2    66.509414    66.228933    328.67671    -195.3774     435.4492    23.496837    22.152103   0.31300174     435.7622   -1068.5176 
    3000   -103229.05   -94069.601     222.3931    20727    226521.18    12.177713    -16.00715    84.776874   -32.236586    435.39382    23.491486    22.147059   0.34068975    435.73451   -1080.4764 
    3100   -103236.14   -93989.435    224.51165    20727    226683.55    11.058177    44.178408    48.235829   -59.239706    435.54647    23.495786    22.151112   0.26436533    435.81083   -1157.6125 
    3200   -103238.28   -93997.139    224.37666    20727    226629.01    21.190366   -73.337605    -45.41445    182.32315    435.64959    23.490178    22.145826    0.2128044     435.8624   -1150.9515 
    3300    -103245.6   -94015.763    224.10204    20727    226545.37    14.261029    -7.582256     -36.4401    86.805441    435.35599    23.493761    22.149204   0.35960375     435.7156   -1137.2588 
    3400   -103283.69   -94008.437    225.20493    20727    226537.65   -51.866782   -70.942814    86.670514   -171.32805     435.5063    23.489306    22.145004   0.28445015    435.79075   -1141.2184 
    3500   -103145.05   -93953.111    223.18201    20727    226525.16     103.9129    283.99641    66.002993   -38.260715     435.2717    23.494988     22.15036   0.40175138    435.67345   -1205.2817 
    3600   -103220.39   -93965.422    224.71237    20727     226624.5   -28.266488    -20.07734    3.3662884   -68.088413    435.32486    23.498704    22.153864   0.37517109    435.70003   -1186.4049 
    3700   -103265.38   -93960.511    225.92388    20727    226561.83   -83.127535     -32.7373   -82.239128   -134.40618     435.5475    23.489449    22.145138   0.26385024    435.81135   -1192.8414 
    3800   -103179.22   -93961.294    223.81289    20727    226615.65    18.659921   -115.16915   -42.977599    214.12651    435.29911     23.49894    22.154086   0.38804379    435.68716   -1194.4915 
    3900   -103181.81   -93898.329    225.40471    20727    226594.92  0.020078281   -10.208783    60.244811   -49.975794    435.31163    23.497527    22.152755   0.38178273    435.69342   -1256.7775 
    4000   -103220.57   -93854.715    227.40475    20727    226633.59   -65.258297   -67.874076   -217.88131     89.98049    435.36384    23.498123    22.153316   0.35568098    435.71952   -1296.7025 
    4100   -103173.75    -93815.46    227.22097    20727    226631.37   -57.374824    -154.0273    78.398194   -96.495362    435.26715    23.500618    22.155668   0.40402374    435.67118   -1337.3403 
    4200   -103104.83   -93845.311    224.82279    20727    226663.01    12.291332    30.077951    60.325909   -53.529863    435.43093    23.497838    22.153047   0.32213386    435.75307   -1310.2665 
    4300   -103164.12   -93818.808    226.90579    20727    226680.37    -22.23001   -168.71115     213.6903   -111.66918    435.41067    23.499284    22.154411   0.33226493    435.74294   -1334.2524 
    4400   -103102.68   -93806.691    225.70832    20727    226617.62   -12.984126    60.644607    -140.4989    40.901919    435.44721    23.495046    22.150415   0.31399565     435.7612    -1351.337 
    4500   -103112.82   -93782.026     226.5533    20727    226638.95   -3.3383787    19.439502   -211.05187    181.59723     435.3517    23.498728    22.153887   0.36174839    435.71345   -1377.0814 
    4600   -103154.01   -93778.477    227.63956    20727    226887.06   -37.522895    198.96246   -139.18789   -172.34325    435.64331    23.503718     22.15859    0.2159457    435.85925   -1372.9787 
    4700   -103156.83   -93804.834    227.06821    20727    226543.13   -14.284615   -127.39923   -179.75572     264.3011    435.45856    23.490878    22.146486    0.3083205    435.76688   -1356.7446 
    4800   -103150.01   -93756.865    228.06726    20727    226799.86    17.564531    183.31547   -315.92774    185.30586    435.64838    23.499064    22.154203   0.21341194    435.86179   -1400.3868 
    4900    -103128.3   -93765.671    227.32641    20727    226556.31    53.278826    111.77948   -99.065327    147.12233    435.49931    23.490462    22.146093   0.28794427    435.78726   -1401.7808 
    5000    -103097.9   -93762.782    226.65845    20727    226653.21     22.11508   -82.323494   -29.740309    178.40904    435.51702    23.495007    22.150379   0.27908753    435.79611     -1400.47 
    5100   -103064.67   -93678.738    227.89208    20727    226749.46     65.29835    223.46198    177.21724   -204.78417    435.32603     23.50515    22.159941   0.37458661    435.70061   -1485.2803 
    5200   -103010.94    -93715.54    225.69409    20727    226629.79    45.152233    171.57976    300.01878   -336.14185    435.40928      23.4967    22.151975   0.33296038    435.74224   -1451.1313 
    5300   -103103.05   -93689.226    228.56924    20727    226698.75  -0.90927216    192.95158   -138.91952   -56.759878    435.54676    23.496565    22.151848   0.26422234    435.81098   -1475.3736 
    5400   -103071.71   -93687.346     227.8541    20727    226808.35   -25.876242   -197.22944   -133.24656    252.84728    435.65277    23.499385    22.154506   0.21121525    435.86398   -1475.2231 
    5500   -103080.15   -93676.331    228.32636    20727    226602.36   -14.743344    -168.8845   -109.88814     234.5426    435.36191    23.496556    22.151839   0.35664283    435.71856   -1493.4836 
    5600   -103061.31   -93636.302    228.84081    20727    226729.46   -27.932965    80.815168   -254.97935    90.365285       435.54    23.498339     22.15352   0.26759966     435.8076   -1529.5521 
    5700   -103057.08   -93632.953    228.81948    20727    226834.23    27.939826   -86.829867    53.572455    117.07689    435.69113    23.499691    22.154794   0.19203402    435.88317   -1535.7824 
    5800   -102969.72   -93587.936     227.7914    20727    226794.07    11.637036     86.93712    189.76659    -241.7926     435.5985    23.500109    22.155188   0.23834987    435.83685   -1579.7037 
    5900   -102971.06     -93581.2    227.98743    20727    226719.63    31.566385    7.7336543   -162.79943    249.76493    435.49144     23.49914    22.154275    0.2918807    435.78332   -1590.1592 
    6000   -102924.63   -93541.228    227.83066    20727    226819.55     49.79215    180.74977   -36.315891    4.9425762    435.72005     23.49815    22.153342   0.17757279    435.89763   -1629.6897 
    6100   -102921.15   -93561.583    227.25195    20727    226657.62    11.336548   -94.611426    150.32308   -21.702008    435.31988    23.500555    22.155609   0.37765878    435.69754   -1611.3709 
    6200   -103030.05   -93556.989    230.00765    20727     226858.2    104.55394    97.624456    233.86814   -17.830763    435.43018    23.507974    22.162603   0.32251097    435.75269   -1620.4657 
    6300   -102920.75   -93569.321    227.05449    20727    226545.94   -21.045575    203.42277   -140.46307   -126.09642    435.54561    23.488676     22.14441   0.26479417    435.81041   -1607.4101 
    6400    -102994.6   -93525.986    229.89973    20727    226716.07   -110.26738   -283.16946   -162.37081    114.73814    435.48528    23.499121    22.154257      0.29496    435.78024   -1644.0311 
    6500   -102927.79   -93554.044    227.59627    20727    226675.39    104.08524    182.42839   -157.32317    287.15049    435.38676    23.499672    22.154776    0.3442184    435.73098   -1628.6288 
    6600   -102939.88   -93491.495    229.40856    20727    226655.76    1.2164623   -98.865983    55.061991    47.453378    435.39933    23.498315    22.153497   0.33793479    435.73727   -1688.7396 
    6700   -102952.75   -93539.147    228.56396    20727    226665.42     32.74894    160.16218     163.0982   -225.01355    435.38126    23.499303    22.154428   0.34696876    435.72823   -1643.3078 
    6800      -102962   -93507.253    229.56289    20727    226700.34    19.889717    109.46696     289.7291   -339.52691    435.53828    23.496877    22.152141    0.2684596    435.80674   -1675.2409 
    6900   -102956.66   -93515.065    229.24368    20727    226669.09  -0.65167972   -11.897813   -31.785604    41.728378    435.55346    23.494848    22.150228   0.26086889    435.81433   -1667.9137 
    7000   -102963.55    -93490.39    230.00994    20727    226701.98   -85.327591   -145.65969   -209.13758    98.814494    435.29246    23.503595    22.158475   0.39137103    435.68383   -1686.6161 
    7100   -102951.32   -93466.902    230.28348    20727    226473.14   -23.949431    7.8967868   -96.121557    16.376477    435.38659     23.48919    22.144894   0.34430517    435.73089   -1722.1644 
    7200   -102928.35   -93483.071    229.33301    20727    226790.37    44.561544    75.351342    28.792942    29.540347    435.36072    23.506334    22.161057   0.35723897    435.71796   -1700.6707 
    7300   -102888.33   -93481.103    228.40929    20727    226599.38    35.427596    150.46637    180.36961   -224.55319    435.38864    23.495681    22.151014   0.34328098    435.73192   -1708.0684 
    7400   -102934.37   -93430.032    230.76697    20727    226712.68   -36.920323   -163.28677    146.96231   -94.436516    435.40869    23.501012     22.15604   0.33325572    435.74194   -1753.6678 
    7500   -102925.35    -93431.12    230.52156    20727    226729.38   -34.287462     87.79433   -163.32338   -27.333339    435.46894    23.500252    22.155323   0.30312795    435.77207   -1754.3994 
    7600   -102938.24   -93434.692    230.74798    20727    226740.37   -48.774393   -188.82505     -165.017    207.51887    435.21346    23.507719    22.162363   0.43087055    435.64433    -1750.367 
    7700   -102914.96   -93455.197    229.68483    20727    226565.58   -5.7823719    73.437623    -82.29758    -8.487159    435.21348    23.498655    22.153818   0.43085938    435.64434   -1738.0427 
    7800   -102872.16   -93465.745    228.38946    20727    226749.23    25.205175    96.733278   -12.259014   -8.8587385    435.56433    23.498707    22.153867   0.25543568    435.81976   -1725.8593 
    7900   -102890.27   -93479.805    228.48786    20727    226520.68      49.6177   -25.043141    -45.39528    219.29152    435.16037     23.49776    22.152974   0.45741436    435.61779   -1720.0395 
    8000   -102963.69   -93443.954    231.14099    20727    226714.67    35.356468    73.011516    11.836123    21.221764    435.31945    23.503524    22.158408   0.37787376    435.69733   -1751.8112 
    8100   -102898.49   -93368.986    231.37798    20727    226693.11   -12.672228     44.69537   -75.962121   -6.7499337    435.25986    23.504016    22.158871   0.40767085    435.66753   -1824.5999 
    8200   -102909.72    -93365.94    231.72462    20727    226709.35    25.608553     108.2181    201.65971   -233.05215    435.56586      23.4966     22.15188   0.25467096    435.82053   -1829.3103 
    8300   -102917.42   -93438.725    230.14442    20727    226738.28   0.88827224    -168.4837   -17.560479    188.70899    435.57105    23.497959    22.153161   0.25207735    435.82312   -1756.3284 
    8400   -102949.61   -93392.254    232.05432    20727    226636.58   -105.92105    88.807652   -82.954893   -323.61592    435.42485    23.496632     22.15191   0.32517654    435.75002   -1802.4799 
    8500   -102981.41   -93348.255    233.89485    20727     226760.7   -62.711431   -112.80628   -163.31111    87.983091    435.49905    23.501063    22.156088    0.2880745    435.78713   -1846.4126 
    8600   -102874.92   -93324.187    231.89346    20727    226902.72   -113.58145   -69.225277   -313.79213    42.273049    435.68775     23.50333    22.158225   0.19372368    435.88148    -1862.933 
    8700   -102850.71   -93290.556    232.12223    20727    226524.01   -53.244644   -220.55574    35.115206    25.706601     435.4137    23.491097    22.146692   0.33075014    435.74445   -1911.6076 
    8800   -102796.01   -93283.635    230.96211    20727    226834.25    13.859567    57.922903    71.063234   -87.407435    435.49841    23.504891    22.159697   0.28839473    435.78681   -1913.4454 
    8900      -102724    -93252.02    229.98151    20727    226539.97   -57.178544   -7.5978738   -52.648163   -111.28959    435.35706    23.493452    22.148913   0.35906874    435.71613   -1950.6991 
    9000   -102771.42   -93260.798    230.91953    20727    226863.88    38.639775    69.206396    86.650265   -39.937338    435.66384    23.501963    22.156936   0.20567953    435.86952   -1939.1176 
    9100   -102703.81   -93237.276    229.84927    20727    226693.47    17.390513    93.718567    -172.1006    130.55357    435.55961    23.495945    22.151263   0.25779263    435.81741   -1966.8813 
    9200   -102765.08   -93213.697    231.90932    20727     226714.7   -17.039258    -155.4101   -16.057203    120.34953    435.30558      23.5039    22.158763   0.38481086    435.69039   -1989.6178 
    9300   -102828.13   -93185.091    234.13464    20727    226721.81   -26.237328  -0.27984839    42.813546   -121.24568    435.35735    23.502871    22.157793   0.35892545    435.71627   -2017.4173 
    9400   -102824.32   -93200.621    233.66514    20727    226561.56     -7.98796    17.988899    165.16544   -207.11822    435.20305    23.498728    22.153886   0.43607266    435.63913   -2010.5284 
    9500   -102711.36   -93166.902     231.7413    20727    226679.84   -79.066371   -2.2982664    113.14684   -348.04768     435.2642    23.503211    22.158112   0.40549933     435.6697    -2036.425 
    9600   -102735.14   -93138.805    233.00066    20727    226787.97    56.938302   -93.643183   -30.140818    294.59891    435.58879    23.500055    22.155137   0.24320357      435.832   -2070.8615 
    9700    -102607.7   -93125.573    230.22766    20727    226559.82    81.206339    4.6776275   -8.8243447    247.76573    435.01937    23.503599    22.158478   0.52791377    435.54729   -2090.0777 
    9800   -102752.16   -93144.992    233.26381    20727    226690.48   -62.187161   -52.198447   -166.50056    32.137522    435.24548    23.504268    22.159109   0.41485771    435.66034   -2062.8231 
    9900   -102699.48   -93129.861     232.3522    20727    226686.79    -19.24527   -71.795165    47.730364    -33.67101    435.23045    23.504482    22.159311   0.42237327    435.65283   -2080.3545 
   10000   -102749.05   -93094.739    234.40844    20727    226775.04    47.908367    220.41405    32.647007   -109.33596    435.46445    23.502739    22.157668   0.30537263    435.76983   -2120.6436 
   10100   -102666.88   -93089.756    232.53442    20727     226522.4   -1.7743871   -81.453085    162.36191   -86.231985    435.23426    23.495855    22.151178   0.42047166    435.65473    -2129.247 
   10200   -102718.14   -93060.354    234.49274    20727    226791.13   -12.048627   -57.164362     -66.3675    87.385982    435.34731    23.506735    22.161435   0.36394489    435.71126   -2151.8968 
   10300   -102709.85   -93048.215    234.58616    20727    226642.06   -62.926943   -18.881895    -51.46511   -118.43382     435.2691     23.50112    22.156141   0.40305056    435.67215   -2165.2981 
   10400   -102616.26   -93062.312     231.9716    20727    226705.55    21.836788   -12.349453     107.9624   -30.102581    435.49101    23.498422    22.153598    0.2920951     435.7831   -2153.3894 
   10500   -102608.72   -93016.687    232.89623    20727    226637.02   -14.740054   -136.13081     102.9565   -11.045853    435.20519    23.502584    22.157522   0.43500607    435.64019   -2202.0004 
   10600   -102645.67    -93007.92    234.00624    20727    226958.08    8.2868512    28.095808    12.950402   -16.185657    435.64192    23.507433    22.162093   0.21663922    435.85856   -2204.6961 
   10700   -102695.25   -93007.617    235.21755    20727    226671.66   -65.039889   -19.272048   -10.525591   -165.32203    435.33224    23.500949    22.155981    0.3714777    435.70372   -2212.7675 
   10800   -102660.01   -93009.913    234.30613    20727    226713.14    9.4200998    24.613534   -35.207708    38.854474    435.22723    23.505935    22.160681   0.42398519    435.65121   -2211.3863 
   10900   -102610.45    -93008.06     233.1478    20727    226735.58    5.3890558    132.13184    112.56851   -228.53318    435.26882    23.505975    22.160719   0.40319077    435.67201   -2212.5248 
   11000   -102630.07   -93003.066    233.74543    20727    226819.23    51.129598    111.58626    6.7060561    35.096477    435.36895    23.507607    22.162257   0.35312631    435.72207   -2218.1319 
   11100   -102675.94   -92964.096     235.8054    20727    226737.67    12.994657     24.46342   -352.96998    367.49053    435.34314    23.504077    22.158929    0.3660316    435.70917   -2260.7954 
   11200   -102563.55   -92971.736    232.89108    20727    226646.84   -11.116566    16.316499   -186.06712    136.40092    435.25059    23.501867    22.156846   0.41230577    435.66289   -2252.7747 
   11300    -102631.2   -92943.327     235.2232    20727    226769.16    81.675516    124.55445   -66.609233    187.08133    435.40543    23.504028    22.158883   0.33488631    435.74031   -2285.1155 
   11400   -102688.35   -92947.292     236.5146    20727    226820.95   -35.632968   -87.872189    167.26056   -186.28727     435.3457    23.508324    22.162933   0.36475133    435.71045   -2274.4991 
   11500    -102531.7   -92929.554    233.14184    20727    226856.98    57.894308    202.90121    315.81445   -345.03273    435.34586    23.510187    22.164689   0.36466997    435.71053   -2295.1152 
   11600   -102514.53   -92893.964    233.58904    20727    226847.38    41.753558   -36.992288    -68.94398    231.19694    435.37565    23.508885    22.163462   0.34977539    435.72542   -2331.4569 
   11700   -102607.98    -92897.51    235.77196    20727    226805.99    50.505484     9.614322   -336.34338    478.24551    435.44763    23.504797    22.159608   0.31378509    435.76141    -2330.749 
   11800   -102564.68   -92869.775    235.39404    20727     226854.6   -44.100413    36.705801   -230.13308    61.126038    435.33145    23.510452     22.16494   0.37187294    435.70333   -2352.6799 
   11900   -102573.36   -92897.786    234.92471    20727    226914.67    0.3898736    139.36449   -126.24469   -11.950171    435.59805    23.506369     22.16109    0.2385771    435.83662   -2326.7063 
   12000   -102546.11   -92862.909    235.10978    20727    226993.42    23.853807     77.45794   -1.2081271   -4.6883908    435.53338    23.512192     22.16658   0.27090913    435.80429   -2361.0363 
   12100   -102551.49   -92902.994    234.26732    20727    227111.08    138.69377   -72.548625    160.56799    328.06196    435.74992    23.512441    22.166815   0.16263819    435.91256   -2325.0488 
   12200   -102533.18   -92853.717    235.01904    20727    227046.73   -23.534419   -57.061388   -255.11216    241.57029    435.62592    23.512455    22.166828   0.22463996    435.85056   -2369.0247 
   12300   -102435.29   -92853.363    232.65089    20727    226937.35    98.662655    217.31632    119.06603   -40.394383    435.65929    23.505891    22.160639    0.2079537    435.86725   -2378.3064 
   12400   -102509.36   -92857.111    234.35827    20727    226969.89    37.610746   -107.27803    80.763056    139.34721    435.65916    23.507579    22.162231    0.2080187    435.86718   -2372.8357 
   12500   -102566.38   -92890.832    234.92411    20727    226870.72    -49.44367   -21.402397   -298.88001     171.9514    435.54428    23.505543    22.160311   0.26546096    435.80974    -2338.978 
   12600    -102527.5   -92849.708    234.97843    20727    226983.37   -3.8268007    15.255319   -56.397659    29.661938    435.68954    23.507458    22.162117   0.19283186    435.88237   -2378.4048 
   12700   -102596.14   -92849.628    236.64709    20727    227082.71   -33.157181    18.384647   -21.632338   -96.223852    435.79351    23.509797    22.164322   0.14084636    435.93435   -2375.6664 
   12800   -102505.01   -92844.975    234.54739    20727    226916.36     61.06656    117.85932    -96.18667    161.52703    435.55421    23.507639    22.162288   0.26049518     435.8147   -2389.7072 
   12900   -102535.23   -92823.974    235.79113    20727    227131.12    31.380736   -150.61674    201.18709    43.571856    435.69639    23.514923    22.169154   0.18940344     435.8858   -2405.2882 
   13000   -102507.39   -92810.954    235.43119    20727    226696.82   -46.964113   -46.351046   -252.60449    158.06319    435.37445    23.501115    22.156136   0.35037462    435.72483   -2426.6772 
   13100   -102537.83   -92756.652    237.48867    20727    227059.26   -9.0564355   -46.622125   -109.57196    129.02477    435.70447    23.510984    22.165441   0.18536388    435.88984   -2475.3068 
   13200   -102378.62   -92750.198    233.77977    20727    226961.13    16.402289   -51.935703     206.1234   -104.98083    435.90689    23.500445    22.155505  0.084154336    435.99105   -2483.6967 
   13300   -102505.45   -92729.048    237.37272    20727    226956.52  -0.58652711    60.876202    204.30023   -266.93601    435.70926    23.505536    22.160304   0.18296923    435.89223   -2508.4573 
   13400   -102452.89   -92710.854    236.53847    20727     226833.4     30.46249    85.925403   -79.277155    84.739221    435.61484    23.501706    22.156693   0.23017974    435.84502   -2531.5911 
   13500   -102482.88   -92720.956    237.02137    20727    226896.46    28.259758    51.739048    138.01176   -104.97153    435.53582    23.507104    22.161783   0.26969062    435.80551   -2519.9703 
   13600   -102379.52   -92703.818    234.92782    20727    226997.08   -8.7371411    19.489994  -0.41298674    -45.28843    435.60435    23.510466    22.164953   0.23542296    435.83978   -2533.3679 
   13700   -102505.09   -92707.589    237.88513    20727    226949.91   -43.031115    98.538575   -137.45068   -90.181236    435.55645    23.509316    22.163869   0.25937606    435.81582   -2529.9379 
   13800   -102457.19   -92708.794    236.69294    20727    226948.53    -45.08616   -28.592672    -242.9932    136.32739    435.51622    23.510331    22.164825    0.2794875    435.79571   -2531.2135 
   13900   -102477.23   -92732.553    236.60254    20727    226856.65   -26.905857   -87.661125   -115.97278    122.91634    435.65425    23.501847    22.156827   0.21047689    435.86472   -2512.4764 
   14000   -102447.79   -92687.304    236.98636    20727    227015.92   -4.2984558   -82.065568    167.29331   -98.123106    435.51255     23.51392    22.168209   0.28132669    435.79387   -2553.0394 
   14100   -102426.88   -92688.609    236.44689    20727    226662.73   -33.499397    65.357905   -108.59331   -57.262791    435.34814    23.500057     22.15514   0.36352851    435.71167   -2563.3025 
   14200   -102319.27   -92672.942     234.2147    20727    226834.58   -51.038186   -149.23923   -84.524487    80.649159    435.44271    23.506411     22.16113   0.31624454    435.75896   -2573.0527 
   14300    -102335.1   -92683.639    234.33915    20727    226894.97    67.553136    29.202763    208.84301   -35.386368    435.61038    23.505015    22.159814    0.2324091    435.84279   -2567.4055 
   14400   -102481.71   -92686.195    237.83698    20727    226827.49   -78.604558   -48.279927   -157.93155   -29.602194    435.44033    23.506108    22.160844   0.31743512    435.75776   -2563.5379 
   14500   -102493.84   -92668.194    238.56844    20727    226785.83   -96.926292    50.012102   -363.11205    22.321069    435.57092    23.500426    22.155487   0.25214205    435.82306   -2582.3383 
   14600   -102484.96   -92672.481    238.24886    20727    226828.24     7.389636   -21.344217     234.5801   -191.06698    435.57071    23.502629    22.157564    0.2522461    435.82295   -2582.0545 
   14700   -102378.44   -92652.516    236.14718    20727     226717.3    43.257627    39.944684    195.27036   -105.44216    435.35787    23.502624    22.157559    0.3586673    435.71653   -2607.0856 
   14800   -102306.16   -92610.302    235.41723    20727    226801.82    34.089134    46.437766    62.933608   -7.1039734    435.33952      23.5075    22.162156   0.36784145    435.70736   -2647.5658 
   14900   -102242.29    -92641.42    233.11087    20727    226803.59     53.91988   -30.602741     31.26524    161.09714    435.27949    23.509212    22.163771   0.39785686    435.67734   -2617.8872 
   15000   -102412.39   -92602.514     238.1855    20727    226774.08   -34.809253   -136.70306    101.78295    -69.50764     435.3897    23.504707    22.159523   0.34274887    435.73245   -2655.2634 
   15100   -102460.37   -92631.347    238.65044    20727    226819.41   -64.040414    86.982471   -261.82804   -17.275672    435.30412    23.509367    22.163916   0.38554193    435.68966    -2627.513 
   15200   -102240.11   -92598.255     234.1061    20727    226514.53    50.323318    149.34765    147.29633   -145.67402    435.00944    23.501518    22.156517   0.53288163    435.54232     -2673.27 
   15300   -102371.06   -92588.893    237.51289    20727    226781.92    57.198701   -44.872925    91.063328     125.4057    435.26457    23.508492    22.163092   0.40531304    435.66989   -2677.9282 
   15400   -102328.34   -92595.693    236.31033    20727    226602.92    57.175475    56.780537     187.2411   -72.495208    435.23192    23.500094    22.155174   0.42163871    435.65356   -2674.6397 
   15500   -102283.11   -92562.999    236.00618    20727    226707.76   -28.797942   -152.91891    120.04051   -53.515434    435.20977    23.506128    22.160863    0.4327135    435.64249    -2703.564 
   15600    -102376.1   -92573.541    238.00796    20727     226642.4   -34.310045    67.693487   -201.91877     31.29515    435.10126    23.505669    22.160431    0.4869686    435.58823   -2696.1728 
   15700   -102356.39    -92564.33    237.75294    20727    226684.29    6.5463772   -148.17323   -10.057429    177.86979      435.256    23.503662    22.158538   0.40959876     435.6656   -2705.4832 
   15800   -102266.72   -92547.791    235.97739    20727     226700.5    87.199563   -84.407067    196.85412    149.15163    434.88668    23.514481    22.168738   0.59425848    435.48094   -2725.2763 
   15900   -102266.21   -92500.449    237.11449    20727     226583.4   -36.011566    11.380313    22.162703   -141.57771    434.96875    23.506189    22.160921   0.55322478    435.52198   -2772.2101 
   16000   -102315.69   -92541.075    237.32945    20727    226594.27   -18.415109    -41.51239   -115.96557    102.23263    434.89753    23.508678    22.163267   0.58883356    435.48637   -2734.5889 
   16100   -102360.13   -92455.756    240.48003    20727    226815.63    10.666576    69.677819    191.60115   -229.27924    434.99235    23.517594    22.171673    0.5414268    435.53377   -2815.6659 
   16200   -102259.18   -92492.053     237.1476    20727    226523.05    12.370122    40.199742    18.817316    -21.90669    434.97016    23.503021    22.157933   0.55251802    435.52268   -2787.9209 
   16300   -102336.41   -92542.779    237.79125    20727    226587.23    113.40558    119.08901    257.26565   -36.137919    434.95066    23.506877    22.161569   0.56227137    435.51293   -2742.2168 
   16400   -102312.19   -92495.759     238.3447    20727    226509.84   -39.890787   -66.161611    -175.4916    121.98085    434.84114    23.505822    22.160574   0.61703237    435.45817   -2787.7046 
   16500   -102316.45   -92519.222    237.87839    20727    226768.94   -3.3303917   -20.438644    50.982422   -40.534954    434.95581    23.516161    22.170322   0.55969654     435.5155   -2758.2805 
   16600    -102200.6   -92461.336    236.47109    20727    226623.14   -55.626512   -172.03718   -118.94905    124.10669    435.00047    23.507393    22.162056   0.53736286    435.53784   -2818.7717 
   16700   -102285.18   -92484.212    237.96922    20727    226579.15   -41.158524   -11.501881   -25.151003    -86.82269     434.7002    23.513229    22.167557   0.68750238     435.3877   -2798.1197 
   16800   -102259.29   -92447.719    238.22671    20727    226553.51   -65.896939    36.264439   -124.13769   -109.81757    434.65886    23.513016    22.167357   0.70816788    435.36703   -2834.8107 
   16900   -102246.56   -92440.932    238.08239    20727    226577.45   -59.597575   -77.312845    20.667319    -122.1472    434.97278    23.505772    22.160527   0.55120895    435.52399   -2843.5135 
   17000   -102173.64   -92382.128    237.73975    20727    226509.19   -62.160328   -304.59926   -57.558382    175.67666    434.79503    23.507034    22.161717   0.64008535    435.43511   -2902.8562 
   17100   -102174.22   -92380.567    237.79172    20727    226682.89    26.385165    186.79687   -327.69724    220.05586     434.8618     23.51424    22.168511   0.60669989     435.4685   -2904.2786 
   17200   -102118.92   -92351.475    237.15545    20727    226844.96     16.95162      27.9824   -58.289141    81.161602    434.98867    23.519214      22.1732   0.54326374    435.53194   -2930.7651 
   17300   -102113.54   -92364.567    236.70678    20727    226748.89   -79.697894   -43.174703   -67.103889   -128.81509    435.04977    23.512582    22.166948   0.51271486    435.56249   -2914.6517 
   17400   -102189.55   -92346.064    239.00163    20727    226805.56   -66.166847   -230.26166   -89.366513    121.12763    434.93835    23.518532    22.172557   0.56842339    435.50678   -2935.2453 
   17500   -102177.33   -92372.675    238.05877    20727    226866.51    50.419055   -170.95334    93.858774    228.35173    435.04218    23.518885     22.17289   0.51651157    435.55869   -2912.5875 
   17600   -102144.34   -92370.997    237.29856    20727    226907.45    116.46493    120.08225   -51.021184    280.33373    435.09488    23.519582    22.173547   0.49015822    435.58504   -2918.5534 
   17700   -102193.39    -92348.57    239.03409    20727    226652.16   -30.017812    27.295251   -163.10791    45.759221     435.0841    23.506639    22.161345   0.49554878    435.57965    -2940.887 
   17800    -102167.1   -92281.587    240.02204    20727    226768.28   -52.459889   -171.36618    196.32517   -182.33866    435.29126    23.507064    22.161745   0.39197035    435.68323   -3005.2119 
   17900   -102062.24   -92298.893    237.05593    20727    226815.36    76.481863    190.13849    198.63452   -159.32742    435.26306    23.510266    22.164764   0.40606752    435.66913    -2995.132 
   18000    -102117.3   -92288.634    238.64188    20727    226747.78    42.413883    179.38301    28.775708   -80.917065    435.11056    23.510882    22.165345   0.48232056    435.59288   -3006.7229 
   18100   -102038.29   -92268.684    237.20773    20727    226654.99   -11.215953   -45.624657    30.205842   -18.229042    435.08831    23.506672    22.161376   0.49344653    435.58175   -3027.7381 
   18200   -102091.09   -92232.207    239.37546    20727    226552.61    -39.40643   -204.97188    14.990048    71.762536    434.69933    23.511875    22.166281   0.68793586    435.38726   -3066.9038 
   18300   -101925.12   -92205.221    236.00086    20727    226570.24    47.990791    33.416095    13.541082    97.015197    434.76037    23.511139    22.165587    0.6574159    435.41778   -3097.7099 
   18400   -102097.22   -92219.583    239.83087    20727    226493.59   -7.7113693   -69.410193   -3.3002487    49.576334    434.71958    23.508265    22.162877   0.67780937    435.39739   -3086.0493 
   18500   -102022.16   -92232.414    237.69679    20727     226436.8    20.032535   -56.427775    146.69801   -30.172626    434.63896    23.507497    22.162154   0.71812179    435.35708   -3075.1989 
   18600   -102054.39   -92197.974    239.31559    20727    226482.36   -61.645463   -97.356777    25.892432   -113.47204     434.7399    23.507132     22.16181   0.66765015    435.40755   -3105.8438 
   18700   -102040.31   -92169.475    239.66573    20727    226475.33    8.9952299    138.58721   -130.96091    19.359388    434.81367    23.504774    22.159586     0.630767    435.44443   -3141.6494 
   18800   -101958.03   -92242.221     235.9016    20727    226417.03    22.585381   -207.06461    165.89141    108.92933    434.81282    23.501771    22.156755   0.63119089    435.44401   -3072.3087 
   18900   -102045.95   -92230.467    238.32176    20727    226524.34   -20.062969    25.535825   -104.34838     18.62365    434.87278    23.505719    22.160477    0.6012111    435.47399   -3079.7767 
   19000   -101994.71   -92212.375    237.51696    20727    226441.64    32.481049   -12.550819   -142.86769    252.86165    434.81218    23.503066    22.157976   0.63151071    435.44369   -3103.6861 
   19100   -101913.52   -92155.927    236.91609    20727    226392.71    69.964135    255.21048    344.27932   -389.59739    434.89574    23.498269    22.153453    0.5897311    435.48547   -3163.0768 
   19200   -101992.89   -92176.974    238.33215    20727    226441.35    52.592737    21.602083    101.11133    35.064799    434.84745    23.502097    22.157063   0.61387681    435.46132   -3141.2692 
   19300   -101982.53   -92204.518    237.41185    20727    226429.42   -16.879994   -4.2454648   -120.90059    74.506077    434.65845    23.506587    22.161296   0.70837534    435.36682   -3111.4252 
   19400   -101958.49   -92143.491    238.31007    20727    226368.24   -25.162485    33.795021    -49.01343   -60.269046    434.58639    23.505359    22.160138    0.7444057    435.33079   -3176.2767 
   19500    -102049.8   -92174.629    239.77092    20727    226362.72    28.548847   -20.338052   -110.41345    216.39805    434.44291    23.508954    22.163527   0.81614351    435.25906   -3148.5677 
   19600   -101969.34   -92213.316      236.878    20727    226122.92    91.452485     11.64573    211.57677    51.134958    434.25267    23.501645    22.156636   0.91126584    435.16393    -3121.171 
   19700   -101923.87   -92154.792    237.19501    20727    226476.16    49.383451    97.079332    39.890098    11.180922    434.67699    23.508512     22.16311   0.69910338     435.3761   -3168.2032 
   19800   -101988.44   -92140.813    239.10207    20727    226231.28   -73.789672    -167.2227   -162.83143    108.68512    434.32013    23.505449    22.160223   0.87753469    435.19767   -3186.0162 
   19900   -101905.52   -92124.763    237.47851    20727    226490.68   -33.417434   -157.14081    54.660159    2.2283451    434.61645    23.510903    22.165364     0.729377    435.34582   -3196.3834 
   20000   -102020.84   -92123.797     240.3021    20727    226454.75   -33.839014   -156.70225   -137.60683    192.79204    434.50144    23.512149    22.166539   0.78688186    435.28832   -3201.2333 
   20100   -101993.19    -92162.25    238.69711    20727    226491.21    2.5853106    62.079447   -28.198896    -26.12462    434.53853    23.513038    22.167377   0.76833324    435.30687   -3163.1713 
   20200   -101979.37    -92142.23    238.84755    20727    226578.36    54.014346      195.279    -95.96709    62.731127    434.63776    23.514877    22.169111   0.71872148    435.35648    -3184.716 
   20300    -101945.3   -92133.371    238.23537    20727    226451.82   -22.189698   -41.089575    -51.74073    26.261212    434.66454    23.507585    22.162237   0.70533046    435.36987   -3194.2124 
   20400   -102016.77   -92097.435    240.84336    20727    226543.44   -21.558927   -52.605258   -35.386902    23.315381    434.40815    23.519278     22.17326   0.83352476    435.24168   -3231.2521 
   20500   -101900.69    -92093.67    238.11629    20727    226408.51    58.517795    134.93551    172.59428   -131.97641    434.26419     23.51617     22.17033   0.90550731    435.16969   -3240.3025 
   20600    -101913.1   -92074.503      238.883    20727    226384.62   -26.868214    16.888946   -54.511053   -42.982534    434.46962    23.509369    22.163918    0.8027918    435.27241    -3257.818 
   20700   -101853.97   -92066.742    237.63564    20727    226503.38   -22.188071    -94.44654     199.5397   -171.65737    434.52562    23.514019    22.168302    0.7747881    435.30041    -3262.239 
   20800    -101882.5   -92027.274    239.28671    20727    226432.24    35.112779    97.718436    130.66132   -123.04142    434.48976    23.511296    22.165735   0.79271952    435.28248   -3307.1878 
   20900   -101851.94   -92042.237    238.18136    20727    226244.15   -79.643286     47.28333    40.625179   -326.83837    434.42646    23.503241    22.158141   0.82436865    435.25083    -3293.973 
   21000    -101884.8   -92029.806    239.28111    20727     226372.9   -4.6504689    115.21277   -47.667762   -81.496419    434.51343    23.507575    22.162227   0.78088273    435.29432   -3307.0051 
   21100   -101862.04   -92051.339    238.20559    20727    226300.04   -64.430936   -72.933901   -304.53638    184.17747    434.31056    23.509281    22.163835    0.8823216    435.19288   -3285.6335 
   21200   -101878.24   -92045.576     238.7388    20727    226208.59     70.44398    44.037542    20.912605    146.38179    434.29869    23.504851    22.159659    0.8882564    435.18694   -3302.1073 
   21300   -101916.19   -92020.192     240.2767    20727     226412.2    -37.52315   -87.631993   -133.39741    108.45995     434.4449     23.51147    22.165899   0.81514803    435.26005    -3317.942 
   21400   -101985.05   -92019.308    241.96998    20727    226247.44   -64.965595   -131.39504    45.153843   -108.65559    434.28386     23.50727     22.16194    0.8956678    435.17953   -3324.8902 
   21500   -101986.59   -92043.377    241.42305    20727    226462.05    37.703592    89.658789    141.18904   -117.73706    434.57483    23.510542    22.165024   0.75018586    435.32501   -3300.5326 
   21600   -102003.38   -92027.618    242.21338    20727    226097.78   -49.526303    13.112347    39.695895   -201.38715    434.25385    23.500307    22.155375   0.91067684    435.16452   -3323.5007 
   21700    -101732.4   -92010.524     236.0489    20727    226122.81    66.419168   -57.234679   -20.786143    277.27833    434.22226    23.502462    22.157406   0.92646829    435.14873   -3343.9989 
   21800   -101917.89   -91967.569    241.59567    20727    226138.51   -60.612741   -381.84872   -118.19249    318.20299    433.83339    23.513809    22.168105    1.1209062    434.95429   -3384.3939 
   21900   -101858.97   -92016.234    238.98338    20727    226224.56   -17.130126   -104.38856    142.93145   -89.933276    433.98923     23.51406    22.168341    1.0429846    435.03222   -3335.6927 
   22000   -101821.06   -91989.811    238.70447    20727    226114.99    60.837058  -0.81333098    197.78608   -14.461575      434.146     23.50412     22.15897   0.96460025     435.1106   -3368.0753 
   22100   -101851.68   -91974.194    239.82706    20727    226166.37   -3.0825564   -158.49801    97.250411    51.999932    434.01811    23.510253    22.164752    1.0285463    435.04665   -3383.0987 
   22200   -101803.87   -91957.902    239.06198    20727    226156.22    41.305805   -195.08503    193.93446    125.06798    433.82909    23.514846    22.169082    1.1230531    434.95215   -3402.5103 
   22300   -101754.49   -91944.834    238.18023    20727    226094.89   -21.157941   -53.656362   -148.99843    139.18097    433.82652    23.511727    22.166142    1.1243391    434.95086   -3413.2236 
   22400   -101834.46   -91923.425    240.64168    20727    226166.43   -29.251823    6.2056554   -88.495381   -5.4657444    434.08474    23.508452    22.163054   0.99522841    435.07997   -3436.6219 
   22500   -101773.19    -91899.57    239.73331    20727    226347.47    27.666047    53.434373    138.44304   -108.87927    433.89685    23.522951    22.176723    1.0891774    434.98602   -3458.1679 
   22600    -101837.4   -91913.561     240.9526    20727    226115.75   -52.929901   -238.04317   -68.834931     148.0884    433.45229     23.52296    22.176732    1.3114542    434.76375   -3447.7517 
   22700   -101772.46   -91905.388    239.57426    20727    226129.36    20.644604    96.897682    85.165967   -120.12984    433.56412    23.520634    22.174539     1.255538    434.81966   -3461.6362 
   22800   -101785.13   -91873.308    240.66096    20727    226203.03    38.226551    53.752955    143.84062   -82.913926    433.75476    23.519295    22.173276    1.1602185    434.91498   -3491.6784 
   22900   -101724.64   -91896.361    238.63252    20727    226139.11    44.905626   -72.568496    34.509369      172.776    433.80734    23.514547      22.1688     1.133932    434.94127   -3471.6358 
   23000   -101746.34   -91876.089    239.65154    20727    226275.52   -39.728336    155.78667   -168.25195   -106.71973     433.8708    23.519917    22.173863    1.1021977      434.973   -3484.8837 
   23100   -101749.16   -91864.444    240.00281    20727    226180.89    32.753945    152.24551     310.8163   -364.79998     434.1149    23.508386    22.162992   0.98015043    435.09505   -3504.7946 
   23200   -101732.93   -91850.594    239.94494    20727    226412.18   0.64197074    19.871548    12.925674   -30.871309     434.3377     23.51437    22.168633   0.86875169    435.20645   -3510.0814 
   23300   -101770.28   -91869.926    240.38243    20727     226126.1   -58.758057   -50.509826   -251.34367    125.57933    434.19956    23.503247    22.158147    0.9378181    435.13738    -3498.139 
   23400   -101783.67   -91877.069    240.53419    20727    226310.07     20.18436    141.84291   -1.3740555   -79.915779    434.49394     23.50484    22.159648   0.79062989    435.28457   -3492.4522 
   23500   -101767.03   -91851.567    240.74925    20727    226296.96   -19.389612   -22.187826    151.54574   -187.52675     434.1748    23.512795    22.167149   0.95020101      435.125    -3518.663 
   23600   -101781.22    -91883.41     240.3206    20727    226207.64   -64.683201   -109.38098    -137.1858    52.517173    434.13457    23.509244      22.1638   0.97031477    435.10489    -3486.876 
   23700   -101723.88   -91824.483    240.35904    20727    226410.67    28.547633    97.670554   -103.72371    91.696058     434.2985    23.515353     22.16956   0.88834953    435.18685   -3545.9868 
   23800   -101630.94   -91779.488    239.19513    20727    226221.13   -6.8439789   -28.879651    123.63514   -115.28742     434.1924    23.508379    22.162985   0.94139769     435.1338   -3594.1474 
   23900   -101646.93   -91760.897    240.03472    20727    226297.54   -8.7959804    57.643333    206.27321   -290.30448     434.2761    23.510083    22.164592   0.89954865    435.17565   -3610.5294 
   24000   -101652.84   -91771.633    239.91739    20727    226236.62    135.64612    192.30178    36.077479     178.5591    434.17098    23.509764    22.164291   0.95211076    435.12309    -3611.736 
   24100   -101672.75   -91773.251    240.36169    20727    226427.78   -24.457034   -314.68779   -10.460337    251.77702    434.30236    23.516137    22.170299   0.88642124    435.18878   -3598.1382 
   24200   -101688.71   -91778.073     240.6321    20727     226079.3    24.534426   -256.40887    152.36621    177.64594     433.8838    23.509365    22.163914       1.0957     434.9795   -3604.5214 
   24300   -101633.66   -91791.237    238.97593    20727    226246.15   -11.519462    21.169101   -32.661119   -23.066368    434.01411    23.514508    22.168763    1.0305471    435.04465   -3587.3651 
   24400   -101755.56    -91775.94    242.30705    20727    226221.81   -30.541031   -179.19759   -108.43562    196.01011    434.13596    23.509943    22.164459   0.96962026    435.10558   -3605.0394 
   24500   -101620.93   -91776.671    239.02042    20727    226173.43    37.983571   -65.313472    283.74074   -104.47655    433.79789    23.516587    22.170723    1.1386551    434.93654   -3607.4431 
   24600   -101726.84   -91733.597    242.63781    20727    226024.86   -36.723266   -59.625536    59.915694   -110.45996    434.01646    23.502942    22.157859    1.0293688    435.04583   -3654.3034 
   24700   -101671.18   -91722.745    241.54987    20727    225969.44   -2.4253211    22.360953   -359.49759    329.86067    433.95462    23.501734    22.156721    1.0602913    435.01491    -3667.746 
   24800   -101681.55   -91722.341    241.81137    20727    226001.73   -52.880914   -117.75343   -94.999977    54.110663    433.87872    23.505469    22.160242    1.0982418    434.97696   -3666.3903 
   24900   -101789.86   -91707.607    244.79885    20727    225874.07   -100.81719   -163.00076   -92.035025   -47.415789    433.83724    23.499953    22.155041    1.1189798    434.95622   -3684.6837 
   25000   -101664.11   -91703.226    241.85213    20727     225954.5   -24.711706     62.53279     75.12211   -211.79002     434.0171    23.499266    22.154393    1.0290512    435.04615   -3690.1901 
   25100   -101606.27   -91658.659    241.52978    20727    225966.19   -58.983468   -166.07351    276.35952   -287.23641    434.03318    23.499438    22.154556    1.0210086    435.05419   -3732.0349 
   25200   -101632.52    -91699.31     241.1801    20727    225876.64    35.994976    48.268951   -21.837604    81.553582      434.083    23.493433    22.148895   0.99610047     435.0791   -3700.7388 
   25300   -101583.13   -91651.761    241.13538    20727     225875.7    45.093832    43.064416   -263.54361    355.76069    434.00613    23.495465     22.15081    1.0345363    435.04066   -3749.3274 
   25400   -101656.14   -91621.203     243.6501    20727    226058.49   -76.284121   -46.656115   -454.50308    272.30684    434.06269    23.503438    22.158327    1.0062531    435.06895   -3771.7492 
   25500   -101608.39    -91657.44    241.61094    20727    226022.48    -11.91998   -51.163945    102.57672   -87.172712    434.32165    23.494559    22.149956   0.87677531    435.19842   -3740.1407 
   25600   -101528.51   -91637.732    240.14977    20727    226238.64     60.76689    62.423439    191.13044   -71.253206    434.14434     23.51059     22.16507   0.96542794    435.10977   -3758.6559 
   25700   -101522.95   -91682.447    238.92915    20727     225943.1    56.278898    125.51039    177.22707   -133.90078    434.05531    23.497638    22.152859    1.0099443    435.06526    -3721.735 
   25800   -101610.73   -91648.414    241.88678    20727    226070.84   -18.311805    73.686474   -70.234512   -58.387378    434.14889    23.501747    22.156732   0.96315566    435.11204   -3750.3797 
   25900   -101658.91   -91669.974    242.53329    20727    225950.73   -17.731871     20.99472   -1.7475237   -72.442809    433.94999    23.500887    22.155922    1.0626027     435.0126   -3734.0963 
   26000   -101680.01   -91633.801    243.92367    20727    226386.32    22.474575     221.4184   -43.878475    -110.1162     434.2466    23.515493    22.169692   0.91429819     435.1609   -3761.1083 
   26100   -101573.28   -91635.521    241.29063    20727    225858.79    41.019788    206.20042   -197.09608    113.95502    433.96807    23.495615    22.150952    1.0535625    435.02164    -3776.681 
   26200   -101647.82   -91603.532    243.87721    20727    226182.06    32.375921     204.7223   -68.190444   -39.404092    434.22527     23.50546    22.160233   0.92496724    435.15023   -3799.5274 
   26300   -101528.33   -91590.661    241.28851    20727    226279.64    56.385362    60.280758    180.72406   -71.848736    434.19947    23.511228    22.165671   0.93786352    435.13734   -3811.6513 
   26400   -101528.37   -91641.773    240.04826    20727     226037.9    121.43307   -39.967015    102.04488    302.22135    433.95183     23.50537    22.160148     1.061683    435.01352   -3770.9585 
   26500   -101557.06   -91613.981    241.41975    20727    226273.41   -2.9742785    216.18393   -242.68834    17.581574    433.97472    23.516991    22.171105    1.0502405    435.02496   -3786.3339 
   26600   -101563.55   -91611.847    241.62914    20727    226240.44    81.582208    24.248822    33.956562    186.54124    434.23722     23.50817    22.162788   0.91899225    435.15621   -3796.3508 
   26700    -101634.8   -91579.424     244.1464    20727    226299.86     38.11591    -7.267772    69.079488    52.536013    434.31526    23.509144    22.163706   0.87996941    435.19523   -3824.2369 
   26800   -101497.91     -91579.3    240.82563    20727    226298.41    59.566498   -73.175097   -6.8220813    258.69667    434.34582    23.508241    22.162855   0.86468835    435.21051   -3825.1499 
   26900   -101591.03   -91572.027    243.26329    20727    226226.99   -74.038791   -63.640611    73.235991   -231.71175    434.45301    23.501632    22.156624   0.81109665     435.2641   -3829.1549 
   27000   -101645.93   -91532.601    245.55342    20727    226367.47   -111.51387   -86.901336    32.555982   -280.19625    434.69759    23.502313    22.157266   0.68880289     435.3864   -3864.5019 
   27100   -101546.75   -91542.926    242.89479    20727    226150.43    -27.14543   -11.837167    -152.8459    83.246775    434.34658    23.500534    22.155589   0.86431005    435.21089   -3867.5743 
   27200   -101610.54   -91539.456    244.52772    20727     226187.2   -15.691626    93.689863   -106.10752   -34.657224     434.4245    23.500336    22.155402   0.82534833    435.24985   -3869.4304 
   27300   -101573.12   -91538.176    243.65024    20727    226290.25    -59.73166    -38.70485   -78.224358   -62.265772    434.47288     23.50438    22.159215   0.80116204    435.27404   -3866.3421 
   27400   -101527.23   -91510.612    243.20521    20727    226262.34   -10.862311   -53.383947    369.19721    -348.4002    434.40045     23.50489    22.159696   0.83737717    435.23782   -3896.8437 
   27500   -101474.59   -91489.441    242.44129    20727    226334.56   -22.545358   0.62224224   -79.573836     11.31552    434.16231    23.515087     22.16931   0.95644732    435.11875   -3917.0737 
   27600   -101496.97   -91497.872    242.77996    20727    226226.58   -6.4206874   -179.01347   -96.417949    256.16936    434.24071    23.507355     22.16202   0.91724547    435.15795   -3913.3273 
   27700   -101486.29   -91476.575    243.03776    20727     226137.7   -41.973268   -284.54441    89.728123    68.896484    434.06972    23.507365    22.162029    1.0027405    435.07246    -3936.956 
   27800   -101408.38   -91454.215    241.68883    20727    226247.78    33.452091     -46.6206    7.7998763      139.177    434.17903    23.510126    22.164632   0.94808522    435.12711   -3959.5883 
   27900   -101454.56   -91483.091      242.109    20727    225969.69   -52.158311   -91.378843    33.975454   -99.071543    433.80919    23.505687    22.160447    1.1330072    434.94219   -3935.4906 
   28000    -101482.1    -91483.77    242.76119    20727    226084.85    73.892757     234.2056    -9.630606   -2.8967185    433.95781    23.507649    22.162297    1.0586974     435.0165   -3941.1659 
   28100   -101532.04   -91460.991    244.52689    20727    226110.04   -50.069525   -282.09316    137.42048   -5.5358982    433.85547    23.511731    22.166145    1.1098629    434.96534   -3958.4844 
   28200   -101452.15   -91446.912    242.92907    20727    226057.94    10.266108   -152.94568    265.87988   -82.135869    433.71603    23.512801    22.167154    1.1795832    434.89562   -3977.9453 
   28300   -101439.46   -91399.425    243.77397    20727    226259.98   -6.8693429    11.360845    40.397315   -72.366189    434.06452    23.513861    22.168153    1.0053379    435.06986   -4017.2059 
   28400   -101412.92   -91422.142    242.57793    20727    226220.03    12.044151    34.014346    91.844791   -89.726684    433.98896    23.513832    22.168126    1.0431216    435.03208   -3998.9995 
   28500   -101476.24   -91419.077    244.18975    20727    226233.72     77.58242    148.44945   -314.87168    399.16948    433.79541    23.519788    22.173741     1.139895    434.93531   -4007.3506 
   28600   -101575.71   -91440.487    246.08515    20727    226235.14   -78.980961    86.183567   -100.57889   -222.54756    434.09998     23.51161    22.166031   0.98760896    435.08759   -3978.1968 
   28700   -101492.97   -91406.643     244.8979    20727    226223.94    -58.75676   -135.88625    175.31429   -215.69833    434.03392    23.512817    22.167169    1.0206388    435.05456   -4013.5824 
   28800   -101436.11   -91437.034    242.77947    20727    226007.96    45.848502   -1.8544827    132.74387    6.6561184      434.221    23.496527    22.151811   0.92709955     435.1481   -3997.3086 
   28900   -101395.24   -91428.313     241.9987    20727    226169.19    22.209137      167.456    32.650494   -133.47909    434.13649    23.507194    22.161868   0.96935588    435.10584   -3999.7683 
   29000   -101480.73   -91410.264    244.51267    20727    226290.79   -11.921287    10.276705    -217.3867    171.34613     434.0857    23.514888    22.169122   0.99474771    435.08045   -4014.4706 
   29100   -101499.05   -91361.384     246.1444    20727    226135.59     4.102432    4.1573929     -23.8305    31.980403    434.31959    23.500492     22.15555   0.87780326     435.1974   -4069.9935 
   29200   -101496.94   -91342.337    246.55562    20727    226245.36   -74.420065    28.782147   -202.29364   -49.748706    434.28932    23.507015    22.161699   0.89294044    435.18226   -4082.4937 
   29300   -101439.94   -91378.652    244.28984    20727    226276.89   -8.2500029    40.346244   -16.885592   -48.210661    434.30606      23.5082    22.162816   0.88456761    435.19063   -4049.6775 
   29400    -101410.8   -91320.403     244.9968    20727    226439.65    50.766331    51.923652   -57.343891    157.71923    434.43743    23.513097    22.167433   0.81888359    435.25632   -4107.8651 
   29500   -101460.16   -91337.616    245.77715    20727    226234.94   -40.019681   -23.805005   -82.437637   -13.816401    434.09464    23.511744    22.166157    0.9902781    435.08492   -4093.2269 
   29600    -101409.3   -91331.605    244.68822    20727     226463.9    23.038082    78.811692    -117.8815    108.18406    434.25814     23.51921    22.173196   0.90853089    435.16667   -4095.4647 
   29700   -101478.89   -91326.515    246.50164    20727    226267.17   -25.076373      7.97857    13.652416   -96.860105    434.20287    23.510488    22.164973   0.93616706    435.13903   -4106.4711 
   29800   -101384.54   -91289.027    245.12088    20727    226314.86    15.311944   -29.606264    7.1369058    68.405189    434.25433    23.511572    22.165995   0.91043458    435.16477   -4143.8073 
   29900    -101279.2   -91283.166    242.70558    20727    226277.87    106.68403    264.87938   -105.10265    160.27536    434.28385    23.508852    22.163431     0.895676    435.17952   -4158.4524 
   30000   -101361.59   -91235.831    245.85534    20727    226230.54    22.118318   -234.22244    132.01713    168.56027    434.16577    23.509589    22.164126   0.95471711    435.12048   -4203.0854 
   30100   -101421.75   -91242.993    247.14207    20727     226008.7    12.986306   -106.13498    197.29525   -52.201349    434.27836    23.495013    22.150384   0.89841934    435.17678   -4202.1668 
   30200   -101351.07   -91215.645     246.0899    20727    226020.69   -32.165132    37.542556   -104.82057   -29.217385     434.1167    23.500011    22.155096    0.9792498    435.09595    -4228.994 
   30300   -101297.88   -91209.314    244.95225    20727    226185.92    93.632776    4.7065961     51.29037    224.90136    434.06694    23.509947    22.164463    1.0041305    435.07107   -4238.1665 
   30400   -101295.74   -91202.791    245.05854    20727    226145.19   -3.9787441   -139.76201   -111.00603    238.83181    434.22335    23.503596    22.158476   0.92592473    435.14928   -4240.8771 
   30500   -101411.29   -91242.859    246.89137    20727    226264.99    16.550974   -149.35392     183.4029    15.603948    434.42113    23.504468    22.159298   0.82703406    435.24817   -4202.4065 
   30600   -101240.16   -91186.009    244.11672    20727    226089.86    71.268518    43.366595   -77.166372    247.60533    434.01311    23.506411     22.16113    1.0310439    435.04416   -4264.7446 
   30700   -101351.81    -91269.83    244.79231    20727    226034.96    63.708657    80.542713   -230.95546    341.53872    433.95954    23.505008    22.159807    1.0578296    435.01737   -4184.2775 
   30800   -101236.86   -91237.235    242.79269    20727    226098.42    142.20775   -73.676894     158.8148    341.48533    433.91228    23.509588    22.164125    1.0814612    434.99374   -4219.4014 
   30900   -101292.84   -91200.889    245.03442    20727    226205.85   -66.513918   -27.538849    121.17107   -293.17398    434.08964    23.510368     22.16486   0.99277942    435.08242   -4244.8289 
   31000   -101305.02   -91242.399    244.32223    20727    226023.81   -54.645536   -51.940424    14.375219    -126.3714    433.83232    23.507874    22.162509      1.12144    434.95376   -4210.3304 
   31100   -101390.97   -91225.943    246.80858    20727    226207.61    -7.743856    14.090095   -18.851893    -18.46977    434.22495    23.506796    22.161492   0.92512267    435.15008   -4225.9323 
   31200   -101330.68   -91214.945    245.61187    20727    226346.44   -26.551241   -149.05594    242.80931    -173.4071    434.19898    23.514711    22.168955   0.93810929    435.13709   -4231.3872 
   31300   -101196.71   -91212.276     242.4238    20727    225969.49    20.997233    123.51925    190.52234   -251.04989    434.02379    23.499864    22.154957    1.0257064    435.04949   -4246.3097 
   31400   -101273.83   -91166.618    245.40508    20727    226237.61   -42.337541   -131.74103   -312.72098    317.44938    434.23666    23.508037    22.162663   0.91926866    435.15593   -4283.4229 
   31500   -101246.72   -91179.707    244.42893    20727    226098.95    20.201897     106.7725   -17.786414   -28.380393    434.21575    23.501398    22.156404   0.92972367    435.14548   -4279.1107 
   31600   -101239.91   -91139.997    245.22781    20727    226043.07   0.41456058   -81.927673    -160.0334    243.20476    434.12827    23.500861    22.155898   0.97346621    435.10173   -4321.6111 
   31700   -101208.77   -91130.565    244.70056    20727    226067.42   -19.028561    152.48634   -28.671005   -180.90101    434.05785    23.504034    22.158888    1.0086775    435.06652    -4329.172 
   31800   -101295.83   -91169.567    245.86751    20727    225953.31   -44.469419    149.67336   -55.930871   -227.15075    434.24242    23.493106    22.148587   0.91638845    435.15881   -4294.3274 
   31900   -101288.54   -91162.029    245.87347    20727    226206.46   -4.3180078    -124.6112    126.91086   -15.253679    434.09345    23.510296    22.164793   0.99087665    435.08432   -4297.8158 
   32000    -101277.9   -91135.799    246.25215    20727    226100.29   -31.454485    23.115605     29.61947   -147.09853    434.11999     23.50406    22.158913   0.97760432     435.0976   -4326.6168 
   32100   -101277.93   -91117.378    246.70005    20727    226153.13   -32.662966   -138.65751  -0.76040827    41.429024    433.91506    23.512356    22.166735    1.0800702    434.99513   -4345.8776 
   32200   -101311.05   -91156.093    246.56423    20727    226074.39    63.130539   -46.196494   -90.959824    326.54793    434.05807     23.50439    22.159224    1.0085666    435.06663    -4313.387 
   32300   -101156.39   -91144.535    243.08958    20727    226123.55    72.390439   -1.5675393   -32.025535    250.76439    434.01215    23.508189    22.162805    1.0315232    435.04368   -4326.1859 
   32400   -101256.68   -91116.887    246.19606    20727       226134   -56.684489    -25.80946    -233.7909    89.546898    434.03501    23.508113    22.162734     1.020093    435.05511   -4348.1905 
   32500   -101218.65   -91071.133    246.38349    20727    226291.11    51.412596    19.203156   -130.75535    265.78999    434.03918    23.516165    22.170325    1.0180086    435.05719   -4394.0653 
   32600   -101211.52    -91082.28    245.93985    20727    226339.68   -21.969658    22.882375    33.081138   -121.87249    434.11089    23.516745    22.170873   0.98215474    435.09305   -4380.3063 
   32700   -101283.19   -91084.167    247.63407    20727    226290.55    22.848957   -94.898395    -122.2153    285.66056    434.26167    23.510111    22.164617   0.90676476    435.16844   -4382.9105 
   32800   -101272.32   -91106.851    246.81933    20727    226288.31   -42.001585    -78.51203   -129.50201    82.009285    434.49975    23.503552    22.158434   0.78772251    435.28748    -4357.187 
   32900   -101198.53   -91109.772    244.95698    20727    226198.45   -35.431339    100.38783   -90.570632   -116.11121    434.26459    23.505247    22.160032   0.90530589    435.16989   -4358.4031 
   33000   -101249.11   -91100.111    246.41965    20727    226076.91   -32.102017    171.24456   -423.56779    156.01717    434.18865    23.500986    22.156015   0.94327719    435.13192   -4372.7361 
   33100   -101237.96   -91095.499    246.26088    20727    226313.46    68.196354    224.03073   -51.355664    31.913997    434.39085    23.507805    22.162444   0.84217307    435.23303    -4378.524 
   33200   -101254.15   -91093.802    246.69501    20727    226156.21   -11.328563   -176.76046   -55.097478    197.87225    433.81586    23.515205     22.16942     1.129672    434.94553   -4383.3381 
   33300   -101257.47   -91061.969    247.54868    20727    226090.45   -95.056233   -81.893783   -85.091552   -118.18336    433.71251    23.514587    22.168837    1.1813431    434.89386    -4413.051 
   33400   -101225.52   -91086.225    246.18382    20727    226096.96   -38.717582   0.10952793   -310.79555    194.53328    433.59231    23.518184    22.172229    1.2414426    434.83376   -4391.8153 
   33500   -101330.49   -91126.725    247.74934    20727    225876.03   -14.829445    55.391205    126.82733   -226.70687    433.76751    23.501943    22.156918    1.1538434    434.92136   -4360.7279 
   33600    -101166.2    -91044.61    245.75407    20727    225942.18    131.52855    120.44406    85.777493    188.36411    433.96687    23.499985    22.155072    1.0541667    435.02103   -4448.9619 
   33700   -101160.22   -91037.408    245.78369    20727     225974.3    -42.77575   -187.28394     -171.047    230.00369    433.50822    23.514084    22.168364    1.2834916    434.79171    -4445.909 
   33800   -101195.21   -91045.676    246.43261    20727    225924.29    18.916242    131.28116   -101.30774     26.77531    433.30018    23.517126    22.171232    1.3875089    434.68769   -4445.0431 
   33900   -101169.16   -91028.113    246.22647    20727    225723.65   -38.022103    81.905468   -42.646198   -153.32558    433.17003    23.510212    22.164713    1.4525831    434.62262   -4468.7617 
   34000   -101211.12   -91013.872    247.59099    20727    225877.21   -39.914794    29.910491   -248.56412    98.909245    433.21918    23.516874    22.170993    1.4280098    434.64719   -4478.5779 
   34100   -101275.37    -90989.82    249.73504    20727    225783.99    33.014947   -161.71549    -32.11561    292.87594    433.15011    23.513895    22.168185    1.4625431    434.61266   -4511.0671 
   34200    -101143.4   -90972.759    246.94507    20727    226034.73   -13.506522    75.761953   -45.408536   -70.872984    433.29333    23.523059    22.176825    1.3909353    434.68426   -4518.9698 
   34300   -101152.07   -90966.421    247.30932    20727    226004.74    61.110828    150.03751    34.628222   -1.3332536    433.34666    23.520051    22.173989    1.3642721    434.71093   -4529.9083 
   34400   -101138.09   -90999.547    246.16564    20727    225955.01   -51.862799   -84.675828   -53.722822   -17.189746    433.23054    23.520615    22.174521    1.4223311    434.65287   -4493.1978 
   34500   -101116.95   -90994.683    245.77058    20727    225991.45    51.995723    27.629868   -153.61176    281.96906    433.42938    23.517115    22.171221    1.3229093    434.75229   -4503.2577 
   34600    -101174.8   -90967.993    247.82313    20727    225879.65    35.044898    55.890587    27.476645    21.767462    433.42202    23.511497    22.165925    1.3265903    434.74861   -4534.0939 
   34700   -101161.28   -90976.229    247.29479    20727    226033.64   -3.6332848   -106.43476   0.93404363    94.600862    433.29146    23.523053    22.176819    1.3918677    434.68333   -4520.0722 
   34800   -101206.63   -90989.416    248.07591    20727    225983.49   -72.215519   -39.345054    314.25359    -491.5551     433.3071    23.520019    22.173959    1.3840521    434.69115   -4506.7897 
   34900   -101181.46   -90931.297    248.87584    20727    225937.71    89.432767    248.74315    86.852869   -67.297723     433.2779    23.518429     22.17246    1.3986478    434.67655   -4576.6552 
   35000   -101101.66   -90929.017    246.99374    20727    225820.23     17.16818    42.841252   -120.30552    128.96881    433.05634    23.518328    22.172364      1.50943    434.56577   -4578.6199 
   35100   -101158.94   -90906.864    248.92223    20727    225884.86   -5.7326179   -16.613758   -60.067427    59.483331    433.22756    23.517044    22.171154    1.4238181    434.65138   -4599.2166 
   35200   -101078.65   -90901.885     247.0937    20727    226180.04     33.48146    4.9593183   -140.23202    235.71709    433.26703    23.531333    22.184625    1.4040857    434.67111   -4597.0903 
   35300   -101109.68   -90911.285    247.61889    20727    225984.76   -56.053253   -48.321885   -284.51859    164.68072    433.18651    23.523358    22.177107    1.4443444    434.63086   -4589.7897 
   35400   -101074.44   -90910.254    246.78828    20727     225862.9    25.364109   -25.584851    35.583328     66.09385    433.37425    23.511921    22.166324    1.3504733    434.72473   -4599.1057 
   35500   -101128.43   -90914.709    247.99106    20727       225793   -73.904365   -95.196133    -35.12918    -91.38778    433.29604    23.510404    22.164894    1.3895822    434.68562   -4594.4613 
   35600    -101086.8   -90862.767    248.24141    20727       225892   -8.1656299   -33.782555    15.240375   -5.9547097    433.33616    23.514469    22.168726     1.369518    434.70568    -4648.162 
   35700   -101145.33   -90901.309    248.72668    20727    225861.14    35.915644    -124.8817    81.909104    150.71952    433.15453    23.517792    22.171859    1.4603334    434.61487   -4613.4267 
   35800   -101100.91   -90864.569     248.5403    20727     225936.5   -31.492323    322.05342   -316.23832   -100.29206     433.4298    23.514245    22.168515    1.3227009     434.7525   -4648.6855 
   35900   -101128.02   -90861.904    249.26307    20727    225847.33   -31.982981   -26.177254   -117.48824    47.716555    433.27582    23.513781    22.168078    1.3996913    434.67551   -4653.1778 
[...]
  491300   -93164.739   -80499.273    307.51981    20727    220669.89    28.227071    138.72533    40.259878   -94.303994     421.3287    23.569926     22.22101    7.3732482    428.70195     -22673.4 
  491400   -93251.548    -80510.43    309.35667    20727    220954.08   -37.512577   -77.751569   -169.83059    135.04443    421.48662    23.580681    22.231149    7.2942908    428.78091   -22653.963 
  491500   -93415.717   -80542.542    312.56304    20727       220702   -48.249328     130.7955   -74.436266   -201.10722    421.23894    23.574153    22.224994     7.418131    428.65707   -22633.152 
  491600   -93233.496   -80538.913    308.22679    20727    220759.58     51.53601   -206.99211    389.06699   -27.466845    421.23613    23.577306    22.227968    7.4195332    428.65567   -22640.823 
  491700   -93335.164   -80543.181    310.59168    20727    220880.91    70.552151    111.47899    182.88523   -82.707762    421.18651    23.585174    22.235385    7.4443445    428.63086   -22636.264 
  491800   -93175.928   -80494.391    307.91002    20727    221083.91    71.845736   -96.522403    152.72981    159.32981    421.26548    23.593798    22.243515    7.4048625    428.67034   -22675.583 
  491900   -93339.384   -80460.358    312.70509    20727     221136.1    -62.34503    143.32227   -4.2730222   -326.08434    421.97421    23.576758    22.227451     7.050494    429.02471    -22706.96 
  492000   -93167.034   -80451.552    308.73422    20727    220916.85   -50.617652   -96.415795    317.63069   -373.06785    422.02861    23.563548    22.214997    7.0232963     429.0519   -22723.729 
  492100   -93356.326   -80491.618    312.35746    20727    220632.45    -67.16461   -32.071489   -112.26295   -57.159389    421.81227    23.554414    22.206386    7.1314631    428.94374   -22698.366 
  492200   -93291.395   -80479.227    311.08178    20727    220872.56     7.323315    83.271013   -277.96493    216.66386    421.89227    23.564993    22.216359    7.0914648    428.98374   -22704.777 
  492300   -93176.225   -80472.183    308.45646    20727    220884.55   -136.28367    -63.05853   -23.025137   -322.76733    421.53738     23.57555    22.226312     7.268908    428.80629   -22708.362 
  492400   -93274.729   -80516.151    309.78061    20727    220855.42     86.81531    -112.1746  -0.32069033    372.94122    421.52373    23.574377    22.225206    7.2757352    428.79946   -22675.685 
  492500   -93247.342   -80561.013    308.02639    20727    220618.83   -12.454845    223.72181   -408.04594     146.9596    421.48432    23.562848    22.214337    7.2954376    428.77976    -22640.08 
  492600   -93179.156   -80504.013    307.75478    20727    220674.79   -23.743343    160.28072    150.61028   -382.12103    421.73906    23.558718    22.210443    7.1680688    428.90713   -22695.376 
  492700   -93122.866   -80472.086    307.16323    20727    220714.48    106.40823    121.17759    17.630162    180.41693    421.94196    23.555171      22.2071    7.0666202    429.00858   -22736.739 
  492800   -93332.817   -80436.394    313.12751    20727    221075.07    62.321092     36.89908    3.3879968     146.6762     421.9592    23.573923    22.224778    7.0580009     429.0172   -22758.438 
  492900   -93229.142   -80402.432    311.43487    20727    221139.26   -119.21809   -143.22761    -95.24294   -119.18373    422.27197    23.568612    22.219771    6.9016167    429.17358   -22780.999 
  493000   -93182.388   -80442.639    309.32344    20727    220968.61    101.28957    28.279493   -57.608127    333.19736     422.1614    23.562602    22.214105    6.9568993     429.1183   -22758.866 
  493100   -93173.994   -80480.659     308.1965    20727    221324.69    -15.99067   -64.846316    255.08711   -238.21281    422.09244    23.583506    22.233812    6.9913788    429.08382   -22704.553 
  493200   -93260.152   -80470.126    310.54417    20727    220998.11     37.52206    46.030641    99.074614   -32.539076     422.2191    23.562564    22.214069    6.9280479    429.14715   -22733.257 
  493300   -93203.125   -80476.719    308.99948    20727    220911.02   -8.5771718    50.003045    32.684459   -108.41902    422.26081    23.556758    22.208595    6.9071949    429.16801    -22729.61 
  493400   -93206.828   -80463.789    309.40331    20727    220992.22   -20.861435   -148.82936    130.42232   -44.177258    422.34285    23.558798    22.210519    6.8661731    429.20903   -22739.321 
  493500   -93182.052    -80468.24    308.69365    20727    220807.41     4.116199   -64.324884    420.07958    -343.4061    421.92038    23.560732    22.212342    7.0774113    428.99779   -22744.628 
  493600   -93176.911   -80470.832    308.50593    20727    220817.59   -32.770399    110.25532   -124.02389   -84.542625     422.1144     23.55586    22.207749    6.9804024     429.0948   -22742.735 
  493700   -93282.304   -80486.638     310.6811    20727    220628.47   -22.860469   -66.981134    332.63474   -334.23501    422.14455    23.544929    22.197444    6.9653252    429.10987    -22737.32 
  493800   -93312.736   -80526.542    310.45112    20727    220624.13     51.38942    9.1225436    19.076887    125.96883    422.27623    23.541027    22.193764    6.8994842    429.17572   -22704.139 
  493900   -93189.151     -80531.5    307.33007    20727    220692.22    1.3857008   -220.39203    210.51072    14.038417    422.17292     23.54754    22.199904    6.9511399    429.12406   -22692.084 
  494000   -93358.204   -80510.049    311.95554    20727    220884.92   -66.363344   -135.88835   -138.05824    74.856563    422.00014     23.56264    22.214141     7.037529    429.03767   -22706.075 
  494100   -93267.394   -80532.657    309.20174    20727    221223.47     37.94217    113.48835   -31.807788     32.14595    422.06409    23.578904    22.229474    7.0055562    429.06964   -22679.037 
  494200   -93206.273   -80515.693     308.1296    20727    221270.26   -9.2529658    -186.2765   -119.33042    277.84802    422.08233    23.580888    22.231344    6.9964345    429.07877   -22692.723 
  494300   -93452.071   -80535.544    313.61563    20727    220702.02   -43.744655   -82.996833   -69.619845    21.382712    421.74708    23.559948    22.211603    7.1640612    428.91114   -22695.781 
  494400   -93252.471   -80550.283    308.41143    20727    220831.88    47.810589    -37.29661    178.01788     2.710494     421.3334    23.578445    22.229041    7.3709013     428.7043   -22682.279 
  494500   -93307.801   -80561.966     309.4712    20727    220591.06    71.524113    49.510556    292.48423   -127.42245     421.5165    23.560467    22.212092    7.2793522    428.79585    -22684.75 
  494600   -93261.002   -80537.107    308.93848    20727    220630.35    6.4747566   -245.24521   -334.24732     598.9168    421.09532    23.574345    22.225176    7.4899419    428.58526   -22705.134 
  494700   -93389.804    -80566.83    311.34413    20727    220669.19    24.154881   -143.60085    251.80682    -35.74133    420.94844    23.580533     22.23101    7.5633814    428.51182   -22677.476 
  494800   -93422.786   -80577.615    311.88308    20727    220521.88    21.339284    189.63296   -294.66156    169.04645     420.8008    23.576796    22.227486    7.6371984      428.438   -22676.892 
  494900   -93360.357   -80613.732    309.49037    20727    220608.43    38.758114    89.965861   -34.380131    60.688613    421.43798    23.563589    22.215035    7.3186113    428.75659   -22639.339 
  495000     -93479.9   -80585.287    313.08353    20727    220791.48    39.004135    300.82666    202.17199   -385.98625    421.44775    23.573089    22.223992    7.3137274    428.76147   -22664.019 
  495100   -93416.029   -80593.133    311.34225    20727    220372.33   -50.893018   -14.123705   -67.933001   -70.622348    421.24201    23.556453    22.208308    7.4165957     428.6586   -22668.724 
  495200   -93363.021   -80584.719     310.2595    20727    220409.75     23.60671    82.724503    89.707177   -101.61155    421.24058    23.558493    22.210231    7.4173076    428.65789   -22682.245 
  495300   -93366.832   -80538.923    311.46396    20727    220646.59   -32.932287     69.97765    168.91777   -337.69228    421.49532    23.564023    22.215445    7.2899385    428.78526   -22718.412 
  495400    -93337.04   -80564.919    310.10943    20727    220397.25   -31.957194    164.46508  0.064300036   -260.40096    421.32596    23.555438    22.207351    7.3746185    428.70058   -22701.378 
  495500   -93427.338   -80558.012    312.46958    20727    220322.34    42.106292    81.087276   -1.1147882    46.346388     421.3366    23.551138    22.203297    7.3692995     428.7059   -22718.416 
  495600   -93245.365   -80537.473    308.54991    20727     220414.5   -8.9952785   -32.232345   -131.77422    137.02073    421.53311    23.550571    22.202763    7.2710467    428.80415   -22732.449 
  495700   -93251.528   -80509.086    309.38883    20727    220486.51   -11.385691   -49.971566   -64.641432    80.455926    421.41291    23.557777    22.209556    7.3311433    428.74406   -22758.311 
  495800   -93264.451   -80497.919    309.97373    20727    220782.78    -2.165335   -124.21723   -30.160987    147.88221     421.4571    23.572363    22.223308    7.3090476    428.76615   -22760.529 
  495900    -93338.18     -80477.8    312.25237    20727    220933.88   -112.18205   -25.654647   -167.10979   -143.78173    421.44477    23.580773    22.231236    7.3152132    428.75999   -22773.968 
  496000   -93280.322    -80504.85    310.19077    20727    220888.98    11.179629   -130.86205    106.39683    58.004101    421.40629    23.579453    22.229992    7.3344539    428.74075   -22754.046 
  496100   -93264.863   -80467.338    310.72623    20727    220834.84   -6.0996969    251.67659   -111.62775   -158.34793    421.41077    23.576438    22.227149    7.3322173    428.74298   -22796.182 
  496200    -93325.59   -80457.086    312.44962    20727    220659.77   -135.39133   -290.81133   -56.197607   -59.165054    421.38234    23.567886    22.219086    7.3464298    428.72877   -22808.546 
  496300   -93314.867   -80416.913    313.16467    20727    220919.36   -83.064859   -13.809558    21.331554   -256.71657    421.34135    23.582892    22.233234    7.3669251    428.70827    -22843.26 
  496400   -93158.368   -80426.767     309.1256    20727    220944.58   -29.261866   -27.654197   -54.830326    -5.301076    421.26228    23.586451    22.236589    7.4064608    428.66874   -22836.884 
  496500   -93330.782   -80475.969    312.11719    20727    220661.85    56.177323    124.52659    206.59651   -162.59114    421.27984    23.570864    22.221894    7.3976783    428.67752   -22805.014 
  496600    -93256.72   -80456.089    310.80166    20727    220813.13   -144.80901    -47.45047    219.05745   -606.03401    421.58147    23.570506    22.221556    7.2468674    428.82833   -22810.697 
  496700   -93218.646   -80495.205    308.92747    20727    220426.54    106.72279    112.86421   -238.24629    445.55045    421.38481    23.555359    22.207276    7.3451937    428.73001   -22798.699 
  496800   -93170.857   -80458.886    308.64897    20727    220492.14   -47.465072   -258.81257    190.91063   -74.493273    421.06818    23.567719    22.218929    7.5035091    428.57169   -22827.633 
  496900   -93288.958   -80500.085    310.51617    20727    220548.88   -15.867877   -69.502634    160.06304   -138.16404     421.0491    23.571285    22.222291    7.5130479    428.56215   -22787.457 
  497000   -93273.945   -80501.192    310.12477    20727    220014.79   -110.57561    48.041268   -205.46581   -174.30227     420.9173    23.546414    22.198843    7.5789522    428.49625   -22803.647 
  497100   -93175.034   -80484.477    308.12902    20727    220281.12    54.175944   -21.282308   -84.794428    268.60457    421.22158    23.552149     22.20425    7.4268077    428.64839    -22819.76 
  497200   -93306.683   -80508.101    310.75189    20727    220213.38   -79.076106    231.06637     -88.7622   -379.53249    421.13525    23.550942    22.203112    7.4699774    428.60522   -22793.431 
  497300   -93158.367   -80524.889    306.74315    20727     220429.5    48.444481    145.50429    63.174799   -63.345651    421.75241    23.545249    22.197745    7.1613925    428.91381   -22777.064 
  497400    -93314.39   -80565.325    309.54961    20727    219999.35    37.924457   -86.493347    29.244938    171.02178    421.57668    23.527166    22.180697    7.2492585    428.82594   -22755.095 
  497500    -93208.36   -80522.791    308.00794    20727    220234.94    119.03039    122.84038   -45.791393    280.04219    421.40325    23.544604    22.197137    7.3359732    428.73923   -22793.357 
  497600   -93232.598   -80510.077    308.90514    20727    220520.64    172.84379   -14.835756    73.395147    459.97198    421.63453    23.553408    22.205437    7.2203372    428.85486   -22799.232 
  497700   -93165.755    -80487.12    307.83958    20727    220873.83   -7.8061843    -46.09687    218.73691   -196.05859    422.59407    23.545485    22.197968    6.7405642    429.33464   -22803.432 
  497800   -93430.635   -80511.219    313.68578    20727    220654.81    21.915139    54.209207   -66.497582    78.033793    422.47914     23.53701    22.189977    6.7980294    429.27717   -22794.182 
  497900   -93293.192    -80487.58     310.9226    20727    220775.95    13.072846   -151.39762    137.72767    52.888487    422.46341    23.543908     22.19648    6.8058958     429.2693   -22810.018 
  498000   -93347.299   -80510.841    311.67153    20727    220684.07   -47.603341    105.84143   -73.332855    -175.3186    422.66743    23.533326    22.186504    6.7038844    429.37132   -22792.898 
  498100   -93311.903   -80496.567    311.15869    20727    220340.05    32.297812      128.103   -27.809839   -3.3997238    422.38981    23.522703    22.176489    6.8426934    429.23251   -22823.349 
  498200   -93321.726   -80470.828    312.02213    20727    220915.22   -29.353708    276.74324   -41.402604   -323.40176     422.5682    23.548412    22.200727    6.7534981     429.3217   -22826.897 
  498300   -93226.678   -80409.562    311.20191    20727    221173.48   -1.6022981    206.35464   -203.03771   -8.1238255    423.12565    23.546646    22.199062    6.4747757    429.60042   -22881.078 
  498400   -93240.572    -80410.37    311.51964    20727    220829.31    25.884145   -342.55193    -118.3892    538.59356    422.41117    23.548208    22.200535    6.8320143    429.24319   -22898.309 
  498500   -93145.118   -80405.413    309.32234    20727    221082.69    41.153244    88.029367    62.822029   -27.391664    422.35439    23.563298    22.214761    6.8604052    429.21479   -22893.767 
  498600   -93320.131   -80441.359    312.69892    20727    221217.45     2.684011   -182.78862    509.08482   -318.24417    422.32724    23.571236    22.222245    6.8739796    429.20122   -22857.291 
  498700   -93281.605   -80405.543    312.63313    20727    221418.02   -71.180071   -108.74015   -94.911384   -9.8886823    422.82001    23.568174    22.219358    6.6275958     429.4476   -22882.897 
  498800   -93265.306   -80358.215    313.38651    20727    221234.74   -150.47604   -222.07057   -169.48889   -59.868665    422.45665    23.568547    22.219709    6.8092731    429.26593   -22934.936 
  498900   -93375.545   -80388.193    315.33527    20727    221235.05    28.541292    234.99749   -195.00772    45.634104    422.54638     23.56606    22.217365    6.7644112    429.31079   -22916.773 
  499000   -93287.502   -80406.746    312.74711    20727    221137.28   -94.488592   -44.613068   -14.146661   -224.70605    422.29825    23.567773     22.21898    6.8884734    429.18673   -22893.761 
  499100   -93014.596   -80361.053    307.23033    20727    221232.58    114.95697    133.13653    168.45566    43.278726    422.42618    23.569282    22.220402    6.8245114    429.25069   -22945.929 
  499200   -93140.465   -80412.291    309.04239    20727    221033.62   -28.783518   -15.888398    55.653838   -126.11599    422.02379     23.56991    22.220994    7.0257062    429.04949   -22898.698 
  499300   -93211.602   -80403.184    310.99072    20727    221199.07    86.872615     274.9253    198.38185   -212.68931    422.23684     23.57278      22.2237    6.9191824    429.15602   -22909.736 
  499400   -93335.528   -80425.981    313.44616    20727     221314.2   -68.790233   -214.40689    157.75239    -149.7162    422.50688    23.571377    22.222378    6.7841599    429.29104   -22877.853 
  499500   -93232.888   -80407.881    311.39351    20727    220865.21   -47.481807   -120.82515   -4.4424349   -17.177831    422.29465    23.553372    22.205403    6.8902752    429.18492   -22915.047 
  499600   -93298.683   -80391.053    313.39959    20727    220992.19   -52.822332   -93.586452    109.51228   -174.39282    422.55273    23.552945    22.205001    6.7612374    429.31396   -22929.115 
  499700   -93205.951    -80361.62    311.86269    20727    221124.98    69.497958    346.51831   -71.201148   -66.823283    422.79922    23.553151    22.205195    6.6379879    429.43721   -22960.658 
  499800   -93196.405   -80362.716     311.6043    20727    221333.52   -134.88526   -323.27734    152.62668   -234.00513    422.74775     23.56569    22.217016    6.6637238    429.41148   -22942.098 
  499900   -93112.921   -80403.242    308.59332    20727     220969.7    81.503922   -92.167275    415.50643   -78.827388    422.46076     23.55431    22.206287    6.8072195    429.26798   -22927.037 
  500000   -93185.054   -80406.338    310.26955    20727    220800.72     -44.6745   -196.53943     24.86237    37.653557    421.77359    23.564475     22.21587    7.1508032     428.9244   -22928.526 
Loop time of 50510.8 on 32 procs for 500000 steps with 20727 atoms

Performance: 1.711 ns/day, 14.031 hours/ns, 9.899 timesteps/s
97.3% CPU use with 32 MPI tasks x no OpenMP threads

MPI task timing breakdown:
Section |  min time  |  avg time  |  max time  |%varavg| %total
---------------------------------------------------------------
Pair    | 6197.9     | 8976.9     | 12416      |2436.7 | 17.77
Bond    | 0.39595    | 0.45302    | 0.53838    |   5.4 |  0.00
Kspace  | 7862.1     | 11315      | 14108      |2182.8 | 22.40
Neigh   | 8143.7     | 9990.8     | 11785      |1287.7 | 19.78
Comm    | 362.56     | 3712.5     | 7173.6     |4257.6 |  7.35
Output  | 4.473      | 43.586     | 71.746     | 370.2 |  0.09
Modify  | 12928      | 16434      | 21316      |2378.5 | 32.54
Other   |            | 37.49      |            |       |  0.07

Nlocal:    647.719 ave 699 max 601 min
Histogram: 2 2 5 9 2 2 1 2 5 2
Nghost:    7425.25 ave 7914 max 7010 min
Histogram: 2 5 4 4 4 2 2 2 4 3
Neighs:    238554 ave 274737 max 212882 min
Histogram: 4 7 7 0 2 3 1 1 4 3
FullNghs:  477109 ave 551426 max 426751 min
Histogram: 3 8 7 0 3 2 1 2 3 3

Total # of neighbors = 15267492
Ave neighs/atom = 736.599
Ave special neighs/atom = 2
Neighbor list builds = 500000
Dangerous builds not checked
write_data production.R1
PPPM initialization ...
  extracting TIP4P info from pair style
WARNING: Using 12-bit tables for long-range coulomb (../kspace.cpp:316)
  G vector (1/distance) = 0.345951
  grid = 400 48 48
  stencil order = 5
  estimated absolute RMS force accuracy = 0.000400894
  estimated relative force accuracy = 1.20728e-06
  using double precision FFTs
  3d grid and FFT values/proc = 67260 38400
write_restart restartproduction.R1
PPPM initialization ...
  extracting TIP4P info from pair style
WARNING: Using 12-bit tables for long-range coulomb (../kspace.cpp:316)
  G vector (1/distance) = 0.345951
  grid = 400 48 48
  stencil order = 5
  estimated absolute RMS force accuracy = 0.000400894
  estimated relative force accuracy = 1.20728e-06
  using double precision FFTs
  3d grid and FFT values/proc = 67260 38400
Total wall time: 14:01:51
