LAMMPS (30 Jul 2016)
# Sets up LAMMPS simulation for transient melting of ice: TIP4P/Ice
# Ensure cold thermostats do not move
# Thinbox: 16x1x1
# Defects
# Order param l=2

#### setting MD parameters ####
units real
boundary p p p
atom_style full

# read ice box in restart file
### read the equilibrated NPT restart file

read_restart restart.state
  orthogonal box = (0.494124 0.0266636 0.0251376) to (435.581 23.5045 22.1594)
  32 by 1 by 1 MPI processor grid
  20736 atoms
  13824 bonds
  6912 angles
  2 = max # of 1-2 neighbors
  1 = max # of 1-3 neighbors
  1 = max # of 1-4 neighbors
  2 = max # of special neighbors


#### force field definition ####
pair_style      lj/cut/tip4p/long 2 1 1 1 0.1577 10.0
pair_modify	tail yes

kspace_style	pppm/tip4p 1.0e-6

bond_style	harmonic
angle_style	harmonic
dihedral_style	none
improper_style	none

bond_coeff	1 450.0 0.9572
angle_coeff	1 55.0 104.52


# reset pair coeff
pair_coeff	* * 0.0 0.0

#OO
pair_coeff	2 2 0.21085 3.1668
#OH
pair_coeff	* 1 0.0000 0.0000

neighbor        2.0 bin
neigh_modify    every 1 delay 1 check no

timestep	2.0
fix		constraints all shake 0.000001 20 0 b 1 a 1
  0 = # of size 2 clusters
  0 = # of size 3 clusters
  0 = # of size 4 clusters
  6912 = # of frozen angles

group water type 1 2
20736 atoms in group water

#*********** SIMULATION PARAMETER TO ADJUST ****************
#Box dimensions
variable lx equal lx
variable ly equal ly
variable lz equal lz

### Temperature of the hot and cold regions ####
variable thi equal 375
variable tlo equal 215
variable runpressure equal 0.986923


# Configuration equilibrated in density and temperature

# Define dx here

variable lx equal lx
variable ly equal ly
variable lz equal lz

variable xlo equal xlo
variable xhi equal xhi

variable boxcentre equal ${xlo}+(${xhi}-${xlo})/2
variable boxcentre equal 0.494124452920801+(${xhi}-${xlo})/2
variable boxcentre equal 0.494124452920801+(435.581075547087-${xlo})/2
variable boxcentre equal 0.494124452920801+(435.581075547087-0.494124452920801)/2

variable dx equal 2.0

#### ADD IN DEFECTS AT THE CENTRE OF THE HOT THERMOSTAT #####
variable y1 equal ${ly}/2.0
variable y1 equal 23.4778727696201/2.0
variable z1 equal ${lz}/2.0
variable z1 equal 22.1342247083722/2.0

region kill1 sphere ${boxcentre} ${y1} ${z1} 3
region kill1 sphere 218.037600000004 ${y1} ${z1} 3
region kill1 sphere 218.037600000004 11.73893638481 ${z1} 3
region kill1 sphere 218.037600000004 11.73893638481 11.0671123541861 3
delete_atoms region kill1 compress no bond yes mol yes
Deleted 15 atoms, new total = 20721
Deleted 10 bonds, new total = 13814
Deleted 5 angles, new total = 6907
############


variable thip equal ${thi}*2.0/3.0
variable thip equal 375*2.0/3.0
variable tlop equal ${tlo}*2.0/3.0
variable tlop equal 215*2.0/3.0
variable hbl equal ${boxcentre}-${dx}
variable hbl equal 218.037600000004-${dx}
variable hbl equal 218.037600000004-2
variable hbh equal ${boxcentre}+${dx}
variable hbh equal 218.037600000004+${dx}
variable hbh equal 218.037600000004+2

#***************************************************
## EQUILIBRATION PERIOD - to reach the steady state ###
#run 0

#reset the timestep to start your production run
reset_timestep 0

# define a group to perform averages
#group s1 type 1
###*** SYSTEM THERMOSTATTING: HOT and COLD regions ***###

fix NVE all nve
fix PRESS all press/berendsen aniso ${runpressure} ${runpressure} 500000 couple yz
fix PRESS all press/berendsen aniso 0.986923 ${runpressure} 500000 couple yz
fix PRESS all press/berendsen aniso 0.986923 0.986923 500000 couple yz


### Apply THERMOSTATS ###

#set up the "hot region" in the middle of the box
region hot block ${hbl} ${hbh} 0 ${ly} 0 ${lz} units box
region hot block 216.037600000004 ${hbh} 0 ${ly} 0 ${lz} units box
region hot block 216.037600000004 220.037600000004 0 ${ly} 0 ${lz} units box
region hot block 216.037600000004 220.037600000004 0 23.4778727696201 0 ${lz} units box
region hot block 216.037600000004 220.037600000004 0 23.4778727696201 0 22.1342247083722 units box


#set up the "cold region" at the left end of the box
#region cold block ${cbl} ${cbh} 0 ${ly} 0 ${lz} units box

#set up the "cold region" at the right end of the box
#region cold2 block ${h2bl} ${xhi} 0 ${ly} 0 ${lz} units box


#Cold regions  unification
#region cold union 2 cold1 cold2 units box

#Create group of cold molecules
####group cool_ice region cold
####group cool_ice include molecule

####compute cold_temp cool_ice temp
####fix cold_rescale water temp/rescale 1 ${tlo} ${tlo} 0.0001 1.0
####fix_modify cold_rescale temp cold_temp

#this calculates the temperature using only the atoms in the "hot region"
#compute hot_temp all temp/region hot

# calculate the temperature using only WATER in the "hot region"
compute hot_temp water temp/region hot

#this calculates the temperature using only WATER in the "cold region"
#compute cold_temp water temp/region cold


#set up a basic velocity rescale for the hot region WATER with thip
fix hot_rescale water temp/rescale 1 ${thip} ${thip} 1.0 1.0
fix hot_rescale water temp/rescale 1 250 ${thip} 1.0 1.0
fix hot_rescale water temp/rescale 1 250 250 1.0 1.0
#change the thermostat to only act on the "hot region"
#this is done by passing it the "hot temp" compute that we defined above
fix_modify hot_rescale temp hot_temp

#set up a basic velocity rescale for the cold region
#fix cold_rescale water temp/rescale 1 ${tlop} ${tlop} 1.0 1.0
#change the thermostat to only act on the "cold region"
#this is done by passing it the "cold temp" compute that we defined above
#fix_modify cold_rescale temp cold_temp

### Ensure MOMENTUM CONSERVATION ###

#ensure that linear momentum is conserved despite the "thermostatting" by velocity rescaling
fix cons_mom all momentum 1 linear 1 1 1


thermo 100
thermo_style custom step pe etotal temp atoms vol press pxx pyy pzz lx ly lz xlo xhi  f_hot_rescale

group ox type 2
6907 atoms in group ox
group hy type 1
13814 atoms in group hy
compute KE all ke/atom
variable TEMP atom c_KE*4186.8/(1.3806488*6.02214129)

compute cc1 all chunk/atom bin/1d x center 2 units box
#fix TPROFILE all ave/chunk 1 500 500 cc1 v_TEMP density/number file temp.dat
fix TPROFILEox ox ave/chunk 1 500 500 cc1 v_TEMP density/number file temp-ox.dat
fix TPROFILEhy hy ave/chunk 1 500 500 cc1 v_TEMP density/number file temp-hy.dat

compute orderparam ox orientorder/atom degrees 1 2 nnn 4 cutoff 3.5
compute cc2 ox chunk/atom bin/1d x center 2 units box
#fix ORDERPARAM all ave/chunk 1 500 500 cc2 c_orderparam[1] file order-param.dat
fix ORDERPARAM all ave/chunk 1 500 500 cc2 c_orderparam[1] file order-param.dat

restart 50000 config.restart

run 500000
PPPM initialization ...
  extracting TIP4P info from pair style
WARNING: Using 12-bit tables for long-range coulomb (../kspace.cpp:316)
  G vector (1/distance) = 0.345618
  grid = 405 48 48
  stencil order = 5
  estimated absolute RMS force accuracy = 0.000405611
  estimated relative force accuracy = 1.22148e-06
  using double precision FFTs
  3d grid and FFT values/proc = 67260 38880
Neighbor list info ...
  2 neighbor list requests
  update every 1 steps, delay 1 steps, check no
  max neighbors/atom: 2000, page size: 100000
  master list distance cutoff = 12.3154
  ghost atom cutoff = 12.3154
  binsize = 6.1577 -> bins = 71 4 4
Memory usage per processor = 12.7763 Mbytes
Step PotEng TotEng Temp Atoms Volume Press Pxx Pyy Pzz Lx Ly Lz Xlo Xhi hot_resc 
       0    -103689.2    -94918.99     213.0039    20721    226099.25    224.32774    127.56087    490.49785    54.924503    435.08695    23.477873    22.134225   0.49412445    435.58108            0 
     100   -103635.37   -94616.352    219.04685    20721    226490.16    1.6044189     13.28926    107.34699   -115.82299    435.26609    23.493324    22.148792   0.40455364    435.67065   -288.09349 
     200   -103582.15   -94556.928    219.19737    20721     226319.3   -1.5798534    191.03853   -152.61999   -43.158101    435.03136    23.490796    22.146408   0.52191937    435.55328   -351.47367 
     300   -103587.42   -94513.121    220.38935    20721    226451.88   -53.606002   -37.816155   -204.95456    81.952713    435.19195    23.493339    22.148806     0.441623    435.63358    -390.8696 
     400   -103502.64   -94445.226    219.97945    20721    226447.11   -7.8403879    29.196786   -29.986091   -22.731858    435.13703    23.494574    22.149971   0.46908333    435.60612   -459.13819 
     500   -103443.44   -94413.762    219.30566    20721     226273.6    -7.091539    76.045106   -49.380427   -47.939295    435.12302     23.48595     22.14184   0.47609202    435.59911   -496.26158 
     600   -103405.78   -94358.139    219.74191    20721    226283.31   -29.542263   -22.313657    204.12297    -270.4361     435.2288      23.4836    22.139624   0.42320244      435.652   -550.97409 
     700   -103387.73   -94309.904    220.47511    20721    226503.59   -13.845131    11.956639     133.9419   -187.43394    435.14741    23.497224    22.152469   0.46389287    435.61131   -593.45915 
     800    -103396.6   -94310.318    220.68039    20721    226369.64    18.941271    144.72111    -86.47121   -1.4260916    434.94715    23.495682    22.151015   0.56402297    435.51118   -600.10285 
     900   -103384.42   -94243.478    222.00801    20721    226363.82    9.2593189   -103.82555    20.042502    111.56101    435.17842    23.489136    22.144843   0.44839223    435.62681   -668.44511 
    1000    -103435.1   -94272.284    222.53927    20721    226540.83    -86.78719   -92.999537    178.97735   -346.33938    435.24014    23.496652     22.15193   0.41753093    435.65767   -631.94372 
    1100   -103296.71   -94186.152    221.27002    20721    226401.82   -32.750766    28.049454   -81.647739   -44.654012     435.1321    23.492358    22.147881   0.47155154    435.60365   -723.16277 
    1200   -103274.49   -94207.522    220.21128    20721    226532.12     47.87068     39.10712   -333.68772    438.19264     435.1451    23.498766    22.153923   0.46504995    435.61015   -702.72164 
    1300   -103256.33   -94134.993    221.53195    20721    226498.41   -79.116433   -176.26549   -159.08523    98.001426    435.39522    23.490268     22.14591   0.33998992    435.73521   -770.38346 
    1400    -103266.9   -94126.724    221.98948    20721     226549.8    60.799893   -84.258111    230.18794     36.46985    435.24149    23.497081    22.152333   0.41685391    435.65835    -787.2783 
    1500   -103254.45   -94108.283    222.13493    20721     226392.1   -106.91302   -195.16719   -50.642273   -74.929586    435.19781     23.49008    22.145734   0.43869735     435.6365   -802.94706 
    1600   -103308.02   -94114.498    223.28501    20721    226634.02    58.874593    84.929032    2.9809043    88.713842    435.70706    23.488889     22.14461   0.18407151    435.89113   -798.87731 
    1700   -103219.37   -94103.729    221.39344    20721    226461.57   -27.971123   -108.20865    73.831777   -49.536498    435.16834    23.494479    22.149881   0.45342898    435.62177   -808.86219 
    1800   -103284.96   -94080.743    223.54483    20721    226550.83    53.817323   -103.83219    6.5672446    258.71691    435.28164    23.496051    22.151362    0.3967797    435.67842   -838.23821 
    1900   -103228.46   -94019.489    223.66026    20721    226470.72    7.6763826    39.651323   -10.543462   -6.0787132    435.21582    23.493672     22.14912   0.42968757    435.64551    -898.5692 
    2000   -103270.69   -94019.289    224.69071    20721    226483.97    54.237874    163.16367    21.726534   -22.176583     435.2208    23.494225    22.149641   0.42719824      435.648   -902.68396 
    2100   -103191.51   -93923.738    225.08828    20721    226582.39    23.532555   -64.247651   -188.16623    323.01154      435.455    23.493009    22.148495   0.31010172     435.7651   -996.39675 
    2200   -103202.43   -93924.857    225.32635    20721    226689.18    64.403271    33.627181    -121.9843    281.56693    435.16267    23.506437    22.161154   0.45626435    435.61894   -994.89905 
    2300   -103190.05   -93903.886    225.53501    20721    226509.44   -62.697288    86.680316   -44.527447   -230.24473    435.16559    23.497037    22.152292   0.45480536    435.62039   -1014.3662 
    2400   -103181.78   -93899.107    225.45028    20721    226510.08    4.1290993    123.89202     115.4683   -226.97302    435.47531    23.488712    22.144444   0.29994656    435.77525   -1024.3071 
    2500   -103160.66   -93885.596     225.2655    20721    226680.97   -12.252743   -30.921625    32.304289   -38.140893    435.61832    23.493714     22.14916   0.22843963    435.84676   -1032.7554 
    2600   -103163.12   -93845.542    226.29808    20721    226661.45    11.385242   -108.85252    89.565291    53.442955    435.59338    23.493375     22.14884   0.24090902    435.83429   -1076.0305 
    2700   -103135.96   -93816.481    226.34425    20721    226710.89   -2.9233017   -146.84801    176.15475   -38.076642    435.40872    23.500919    22.155952   0.33323937    435.74196   -1102.8196 
    2800   -103097.41   -93768.979    226.56171    20721    226665.37   -42.892215    243.89121   -48.072391   -324.49546    435.54682    23.494834    22.150215   0.26419244    435.81101   -1150.3013 
    2900   -103050.28   -93766.459    225.47811    20721     226697.3   -2.5315345   -94.037999    13.943387    72.500009     435.4896    23.498032    22.153231   0.29280118     435.7824   -1155.6005 
    3000   -103128.39   -93780.515    227.03395    20721     226762.3   -30.530818    -120.3761    4.3630222    24.420628    435.61784    23.497941    22.153145    0.2286789    435.84652   -1136.0566 
    3100   -103240.94   -93805.043    229.17159    20721    226651.63   -45.945724   -107.97039   -226.28053    196.41375    435.58558    23.493077    22.148558   0.24481029    435.83039   -1117.3044 
    3200   -103084.97   -93740.836    226.94301    20721    226720.63    10.762947   -93.676574   -88.034025    213.99944    435.40115    23.501628    22.156621   0.33702688    435.73817    -1184.532 
    3300   -103139.48   -93703.046    229.18478    20721    226641.65  0.091232253     321.2216    125.99521   -446.94312    435.44057     23.49647    22.151758   0.31731434    435.75789    -1224.252 
    3400   -103062.09   -93679.912    227.86689    20721    226615.25    24.255936   -103.29872    304.36033   -128.29381    435.37707    23.496815    22.152083   0.34906483    435.72614   -1249.6747 
    3500   -103127.82   -93662.654    229.88244    20721     226612.7   -58.297952    2.9951977   -71.725523   -106.16353    435.33763    23.497747    22.152962   0.36878687    435.70641   -1264.9526 
    3600   -103073.42   -93678.796    228.16925    20721    226631.26      22.8522   -151.64474    91.240835     128.9605    435.36311    23.498022    22.153221   0.35604557    435.71915   -1251.8197 
    3700   -103064.63   -93665.391    228.28131    20721    226685.02   -10.474473   -57.299111    9.0961435    16.779548    435.19716    23.505289    22.160072   0.43901914    435.63618   -1263.8151 
    3800   -103063.44   -93632.603    229.04868    20721    226725.85    13.410098   -127.30201     192.0982   -24.565897    435.35013    23.503276    22.158174   0.36253533    435.71266   -1298.7308 
    3900   -103077.43    -93617.25    229.76148    20721    226796.22   -123.55145   -228.45032    45.236655    -187.4407     435.3232     23.50765    22.162298   0.37599811     435.6992    -1306.343 
    4000   -102991.48   -93582.281    228.52329    20721    226728.15    47.711775    137.15542     7.574748   -1.5948382     435.3791    23.502613    22.157549   0.34804934    435.72715   -1351.6611 
    4100   -103041.53   -93553.734    230.43216    20721    226804.52   -9.2954752   -197.52524    66.536531    103.10229    435.51231    23.502976    22.157891   0.28144531    435.79375   -1375.9792 
    4200   -102975.06   -93531.703    229.35274    20721    226688.28   -31.410685    121.30862   -224.14858    8.6079023    435.38104    23.500494    22.155552   0.34708128    435.72812   -1401.4704 
    4300    -102965.8   -93489.758    230.14669    20721    226876.22   -7.1165893   -189.68767   -43.413131    211.75103    435.47394    23.507726    22.162369   0.30063247    435.77457   -1439.8614 
    4400   -102929.11   -93516.899    228.59631    20721    226592.98    17.151876    92.709542   -134.38804    93.134131    435.48173    23.492838    22.148333   0.29673744    435.77846   -1424.5494 
    4500   -102976.15   -93491.767    230.34923    20721    226904.13   -8.6879255    72.981978    81.846176   -180.89193    435.75086    23.501701    22.156689    0.1621699    435.91303   -1440.7171 
    4600   -102937.61   -93479.466    229.71207    20721    226726.99   -44.966233     29.69449    11.171109    -175.7643    435.67482    23.494575    22.149971   0.20019109    435.87501   -1456.1123 
    4700   -102928.51   -93471.576    229.68255    20721    226750.49    60.448769   -63.482051    85.234736    159.59362    435.45289    23.501779    22.156763   0.31115577    435.76404   -1470.2922 
    4800   -102873.92   -93483.531    228.06635    20721    226644.12    38.673989    65.809582    10.189673    40.022713    435.41801    23.497207    22.152453   0.32859304    435.74661   -1460.2345 
    4900   -102918.56   -93506.659    228.58878    20721    226714.87    39.983478    46.656336    144.24027    -70.94617    435.36091    23.502416    22.157363   0.35714453    435.71806   -1436.2947 
    5000   -102961.05   -93463.934     230.6585    20721    226876.44     25.19765    85.227936    -125.9146    116.27962    435.45664    23.508205    22.162821   0.30928054    435.76592   -1474.2035 
    5100   -102893.75   -93445.353    229.47516    20721    226607.58     25.55653    -111.8508    192.31564   -3.7952506    435.34355    23.497322    22.152561   0.36582346    435.70938   -1502.6008 
    5200   -102860.54   -93410.791    229.50803    20721    226729.95   -18.410514    176.71295     70.47454   -302.41903    435.51958    23.498915    22.154063   0.27781124    435.79739   -1531.5073 
    5300   -102915.44    -93419.56    230.62857    20721    226660.35   -44.202852   -55.677227    123.97983   -200.91115    435.31006    23.500962    22.155992   0.38257047    435.69263   -1525.5843 
    5400   -102926.38   -93457.616    229.96995    20721    226613.12   -1.5955913   -275.48949   0.35423209    270.34848    435.22393    23.500839    22.155876   0.42563368    435.64957   -1491.3675 
    5500   -102856.39   -93427.512    229.00108    20721    226763.41    21.263984    125.27062   -161.85955    100.38088    435.57329      23.4992    22.154332   0.25095608    435.82424   -1519.5756 
    5600   -102959.05   -93426.365    231.52235    20721       226663   -45.896161    92.311322   -97.920521   -132.07929     435.3642    23.499638    22.154744   0.35549913     435.7197   -1522.2109 
    5700   -102910.73   -93421.558    230.46552    20721     226834.3    6.6673228    45.318424    12.767711   -38.084167    435.52486     23.50418    22.159026   0.27516989    435.80003   -1527.0991 
    5800    -102871.4   -93418.867    229.57565    20721    226653.46   -26.475093    75.802195   -101.12918   -54.098291    435.28475    23.501288      22.1563   0.39522656    435.67997   -1532.7314 
    5900   -102934.56   -93423.971     230.9856    20721    226729.93     -29.8892    84.726759   -69.605992   -104.78837    435.40596     23.50198    22.156952   0.33461897    435.74058   -1526.8265 
    6000    -102861.6   -93370.322    230.51671    20721    226637.31   -46.476179   -51.622774   -227.69378    139.88802    435.38321    23.497793    22.153005   0.34599511     435.7292    -1582.646 
    6100    -102804.3   -93315.792    230.44951    20721    226657.52   -5.2442635   0.77044125   -98.052526    81.549295     435.1667    23.504686    22.159504   0.45425136    435.62095   -1638.7987 
    6200    -102798.6   -93339.892    229.72558    20721    226667.48   -39.098271   -83.980221    78.816276   -112.13087    435.36639    23.499811    22.154908   0.35440414     435.7208   -1613.4525 
    6300   -102880.82   -93314.881    232.32992    20721    226727.98    61.966802    200.32258    -218.7585    204.33632    435.45793    23.500477    22.155535   0.30863333    435.76657   -1643.2101 
    6400   -102842.38   -93273.645    232.39801    20721    226527.24   -83.702767   -172.26766   -30.542328    -48.29831      435.275    23.495006    22.150378   0.40010039     435.6751   -1683.9226 
    6500   -102844.19   -93267.737    232.58525    20721    226734.22    55.740063   -6.3580175    285.66168   -112.08347    435.23811    23.506734    22.161434   0.41854683    435.65665   -1692.1288 
    6600   -102770.15   -93253.519    231.13245    20721       226682    4.5908426   -136.11767    20.667832    129.22237    435.35944    23.500751    22.155794   0.35787843    435.71732   -1706.7124 
    6700   -102743.22    -93233.88    230.95529    20721       226688   -6.0786708    17.817932   -280.87566    244.82171    435.38668    23.500327    22.155394   0.34425853    435.73094   -1726.7053 
    6800    -102914.8   -93240.293    234.96683    20721     226609.9   -18.251112   -178.99877    18.099892    106.14554    435.35059    23.497252    22.152495   0.36230471     435.7129   -1722.6864 
    6900   -102861.19    -93275.02    232.82143    20721    226598.42    31.484951   -19.171301    175.81978   -62.193631    435.28769    23.498355    22.153535   0.39375406    435.68145   -1692.8929 
    7000   -102803.77   -93246.624    232.11655    20721    226729.11    76.502376    139.16223   -94.549873    184.89477    435.39652    23.502192    22.157153   0.33933849    435.73586    -1719.499 
    7100   -102707.67   -93209.656    230.68025    20721     226670.3    -31.05012    74.719295    106.90849   -274.77815    435.38852     23.49936    22.154482    0.3433406    435.73186   -1754.3494 
    7200   -102759.97   -93209.319    231.95878    20721    226590.14    11.334957    -120.9173   -114.48813    269.41031    435.32273     23.49698    22.152239   0.37623634    435.69896   -1759.4606 
    7300   -102698.09   -93178.833    231.19634    20721    226908.04    49.331517   -46.351019     4.298083    190.04749    435.33181    23.513212    22.167541   0.37169591     435.7035   -1783.9805 
    7400   -102700.31   -93167.353    231.52889    20721    226639.16   -15.951135    91.069792    333.52013   -472.44333    435.25277     23.50141    22.156415   0.41121328    435.66399   -1799.9062 
    7500   -102763.25   -93147.616    233.53696    20721    226860.12    32.841793    160.17553    -242.8488    181.19865    435.42186    23.508298    22.162908   0.32666801    435.74853   -1819.3417 
    7600   -102720.55    -93104.07    233.55752    20721    226778.71    21.976863    18.532441    217.32058   -169.92243    435.34811     23.50607    22.160808   0.36354549    435.71165   -1863.4951 
    7700    -102800.6   -93139.744    234.63525    20721    226690.97   -22.003837   -83.081234     214.3096   -197.23988    435.52204    23.496829    22.152096   0.27657948    435.79862   -1830.9725 
    7800   -102705.16   -93084.013    233.67093    20721    226567.83    -20.54236    75.998102    144.73085   -282.35603    435.30094    23.496411    22.151702    0.3871298    435.68807   -1891.9353 
    7900   -102638.71   -93045.776    232.98573    20721    226650.28    30.877793    46.049994    149.75054   -103.16715    435.47951    23.495868     22.15119   0.29784695    435.77735   -1928.6435 
    8000   -102651.22   -93071.062    232.67522    20721    226647.32    54.964582   -22.880155    29.419851    158.35405    435.58268    23.492931    22.148421   0.24626233    435.82894   -1906.5533 
    8100   -102676.64   -93041.979    233.99902    20721     226839.7    41.824299   -58.276963    65.051249    118.69861    435.57468    23.503115    22.158023   0.25025901    435.82494   -1929.6202 
    8200   -102584.43   -93013.617     232.4485    20721    226784.23    51.177564   -72.011482    81.969837    143.57434    435.57479    23.500239    22.155311   0.25020579    435.82499    -1960.782 
    8300   -102704.05   -93028.492     234.9923    20721    226864.89    100.89288    213.04757    106.89978   -17.268702    435.37078    23.509924    22.164441   0.35220968    435.72299   -1949.3909 
    8400   -102702.61   -93041.254    234.64751    20721    226814.62    4.5528232   -126.50946   -28.157788    168.32572    435.12303     23.51401    22.168294   0.47608371    435.59912   -1935.4248 
    8500   -102634.58   -92983.961    234.38669    20721    226762.47   -1.4295293     149.4516   -112.29198   -41.448209    435.25214     23.50782    22.162458   0.41153206    435.66367   -1991.5999 
    8600    -102704.2   -92997.587     235.7466    20721    226845.28   -54.551286   -71.455341   -114.13868    21.940168    435.49377    23.505588    22.160354   0.29071533    435.78448   -1974.7294 
    8700    -102655.2   -92988.399     234.7797    20721     226964.9    28.413196    22.234838    13.004554    50.000197    435.53927    23.510556    22.165038   0.26796715    435.80723   -1987.3343 
    8800   -102576.88   -92969.192    233.34388    20721    226891.58    39.842003    171.77736    22.552279    -74.80363    435.51461    23.507424    22.162085   0.28029265    435.79491   -2006.7728 
    8900   -102665.13   -93006.501    234.58125    20721    227076.67    35.361891    146.15505    80.952508   -121.02189    435.31393     23.52243    22.176232    0.3806339    435.69457   -1968.7687 
    9000   -102676.56   -93004.211    234.91439    20721    226779.11   -58.447786   -10.752679   -294.90784    130.31716    435.33209    23.506523    22.161236   0.37155539    435.70364    -1975.191 
    9100   -102660.87   -92968.809    235.39328    20721    226915.83   -38.371941    92.138702   -236.77203    29.517507    435.49044    23.509332    22.163884   0.29237792    435.78282   -2009.3407 
    9200   -102656.25    -92944.62    235.86841    20721    226892.54    18.199824    66.473858    66.070122   -77.944507    435.62175    23.504583    22.159406   0.22672663    435.84847   -2038.9596 
    9300   -102565.12    -92934.41    233.90304    20721    226784.14    15.410451    171.60986    101.06421   -226.44272    435.32395    23.507003    22.161688   0.37562359    435.69958   -2051.0321 
    9400   -102552.91    -92934.12     233.6135    20721    226917.16    12.245881   -5.3985314    5.4088258    36.727348    435.56669    23.507344    22.162009   0.25425378    435.82095   -2047.9676 
    9500   -102510.38   -92892.316    233.59594    20721    226899.79    39.771101    155.36422    51.616265   -87.667186    435.38579    23.511327    22.165764   0.34470366     435.7305   -2092.3657 
    9600   -102587.02   -92888.256    235.55599    20721    226800.68   -5.4646037    6.5458475   -89.033178    66.093519    435.49089    23.503355    22.158248    0.2921571    435.78304   -2100.1823 
    9700   -102564.66   -92861.545    235.66152    20721    226849.21   -114.23715   -249.57539   -86.468575   -6.6674932    435.69889    23.500258    22.155329   0.18815302    435.88705   -2118.8279 
    9800   -102530.59    -92849.43    235.12836    20721    226927.42    18.387022    128.46208   -76.636277    3.3352625    435.52167     23.50909    22.163655   0.27676334    435.79844   -2137.2585 
    9900   -102508.06   -92822.736     235.2295    20721    227011.64    38.830181   -69.523288    333.70697   -147.69314    435.50297    23.513957    22.168244   0.28611409    435.78909   -2162.2104 
   10000   -102479.01   -92790.911    235.29698    20721    226942.85   -12.166614   -93.402262    3.9242053    52.978215    435.57069    23.508566    22.163161   0.25225516    435.82294   -2195.0702 
   10100   -102451.67   -92768.424    235.17909    20721    226864.25    49.189057     80.55206    86.755546   -19.740435    435.39665    23.509192    22.163752   0.33927698    435.73592   -2222.3972 
   10200   -102501.65   -92758.313    236.63857    20721    226869.42   -40.884346   -61.299602   -156.23406    94.880626    435.34047    23.510977    22.165434    0.3673649    435.70784   -2229.8538 
   10300    -102489.9   -92738.959     236.8232    20721    226804.55   -69.473335    3.3071638   -159.98887     -51.7383    435.52263    23.502699     22.15763   0.27628644    435.79891   -2250.1697 
   10400   -102467.29   -92705.764    237.08034    20721    226843.22   -44.936152   -176.07066   -96.028051    137.29025    435.65017    23.501261    22.156275   0.21251426    435.86269   -2285.3441 
   10500    -102408.1   -92673.986    236.41457    20721    226997.54   -17.079271   -55.388488     61.83041   -57.679736    435.59891    23.510637    22.165114   0.23814663    435.83705    -2314.906 
   10600   -102392.61    -92655.14    236.49592    20721       226779   -21.968594   -131.34219   -16.295326    81.731733    435.40591    23.504525    22.159351   0.33464456    435.74056   -2340.8555 
   10700   -102368.57   -92667.485    235.61221    20721    226968.43    45.166594    146.87382    169.28563   -180.65967    435.64217    23.507962    22.162592   0.21651287    435.85869   -2325.3667 
   10800   -102353.51   -92680.173    234.93831    20721    226858.62    36.055605   -67.879274   -101.28786    277.33395    435.72468    23.500049    22.155132   0.17525814    435.89994   -2317.6407 
   10900   -102438.95   -92646.621    237.82839    20721    226795.04   -4.5429702    -201.0806    40.078819    147.37287    435.33489    23.507273    22.161943   0.37015669    435.70504   -2351.9767 
   11000   -102494.76   -92670.086    238.61394    20721    226766.19   -32.626767   -155.68164   -27.504534    85.305877    435.51891    23.500811     22.15585   0.27814552    435.79705   -2332.9302 
   11100   -102499.59   -92674.278    238.62941    20721    226740.65    20.314211    -125.9143    123.87686    62.980073    435.36836    23.503551    22.158433   0.35341915    435.72178    -2329.445 
   11200   -102394.94   -92660.921    236.41219    20721    226745.09    12.703108    34.820081   -161.03121    164.32045    435.36308    23.503924    22.158785   0.35605953    435.71914   -2344.0814 
   11300    -102449.8   -92661.779    237.72366    20721    226734.93   -89.495093   -161.74566   -56.181724   -50.557898    435.40614    23.502234    22.157192   0.33453109    435.74067   -2337.4286 
   11400   -102326.28   -92611.743    235.93893    20721    226694.79    19.360549     50.74364   -58.436798    65.774805    435.40361    23.500223    22.155295   0.33579305    435.73941   -2393.4425 
   11500   -102340.01   -92564.253    237.42599    20721    226750.75   -17.914866   -105.67427    42.590423    9.3392525    435.62143    23.497246    22.152489   0.22688586    435.84831   -2441.1617 
   11600   -102292.44    -92600.66    235.38628    20721    226937.08    38.578297    173.44915    133.63981   -191.35406    435.79808    23.502133    22.157097   0.13855963    435.93664    -2400.665 
   11700   -102335.45   -92646.857    235.30888    20721    226851.02    11.178856    -116.6608   -45.010269    195.20763    435.48063    23.506239    22.160968   0.29728252    435.77792   -2358.4714 
   11800   -102397.02   -92611.495    237.66305    20721    226725.22    27.935076   -3.7350019   -14.158443    101.69867    435.23713    23.506294    22.161019   0.41903571    435.65616   -2398.6148 
   11900   -102347.55    -92645.44    235.63722    20721    226785.33    18.337411    84.856164       -161.9    132.05606    435.55671    23.500783    22.155824   0.25924267    435.81596   -2364.4959 
   12000   -102259.68   -92596.407    234.69387    20721     226804.2    36.142065    115.25909   -6.4550018  -0.37789383    435.48196    23.503778    22.158647   0.29661805    435.77858   -2411.5963 
   12100   -102314.28   -92577.734    236.47363    20721    226682.66   -34.188592   -11.041706   -105.25503    13.730955    435.41606    23.499258    22.154386   0.32957064    435.74563   -2432.7648 
   12200   -102306.64   -92574.831    236.35853    20721    226624.84    3.5741475   -72.473174   -200.84185    284.03747    435.53504    23.493051    22.148534   0.27008092    435.80512   -2441.8347 
   12300   -102310.04   -92580.591    236.30115    20721    226630.21    50.389163    -247.8676    150.11471    248.92038    435.46202    23.495299    22.150654   0.30659154    435.76861   -2435.9541 
   12400   -102294.88   -92558.422    236.47149    20721    226692.54   -18.045671     109.5555    192.83324   -356.52575    435.27735    23.503514    22.158398   0.39892348    435.67628   -2455.5521 
   12500   -102380.34   -92598.452    237.57476    20721    226572.21    65.120862    89.744275   -62.192146    167.81046    435.05428    23.503298    22.158195   0.51045962    435.56474   -2423.6486 
   12600   -102231.96   -92570.317    234.65444    20721    226586.18    14.346508    82.332706   -148.69714    109.40396    435.02661     23.50477    22.159583   0.52429332    435.55091   -2448.1668 
   12700   -102378.24   -92595.408    237.59779    20721    226568.92    14.495243    -58.33022    112.76844   -10.952497    435.02015     23.50405    22.158903   0.52752631    435.54767   -2424.2179 
   12800   -102338.98   -92540.582    237.97567    20721    226722.42   -29.130766   -74.410989   -72.199834    59.218526    435.26256    23.505462    22.160235   0.40631986    435.66888   -2474.5883 
   12900   -102256.78   -92529.888    236.23902    20721    226578.92   -41.039608    8.5021847   -108.51831   -23.102693    435.26639    23.497919    22.153124   0.40440371     435.6708   -2488.4429 
   13000   -102348.55   -92545.404    238.09109    20721     226739.4   -17.701659    30.864358    5.3036807   -89.273014    435.33675    23.504339    22.159177   0.36922336    435.70598    -2473.405 
   13100   -102302.83   -92539.903    237.11438    20721    226678.97    -32.82469   -36.517774    16.911866   -78.868162    435.10496    23.507466    22.162124   0.48511818    435.59008   -2479.4086 
   13200   -102288.14   -92547.323    236.57741    20721    226684.32    12.194895    129.00904   -54.495267   -37.929088    435.04504    23.509362    22.163912   0.51507793    435.56012   -2474.6115 
   13300   -102329.27   -92502.333    238.66898    20721    226782.66     31.38398    129.15628    48.320572   -83.324911    435.14711    23.511703    22.166119   0.46404539    435.61115   -2517.6372 
   13400   -102208.72   -92529.015    235.09316    20721    226592.54    76.278725    75.387261    248.48984   -95.040931    434.91681    23.508067    22.162691   0.57919703      435.496   -2498.7249 
   13500   -102378.88   -92546.318    238.80561    20721    226657.56   -35.237295   -130.13469   -55.847009    80.269816    434.84842    23.513288    22.167613   0.61339008    435.46181   -2478.7387 
   13600   -102253.24   -92496.501    236.96396    20721    226696.33    -7.418791   -165.68202    64.355107    79.070539     434.7162    23.518875    22.172881   0.67949924     435.3957   -2527.4301 
   13700   -102322.12   -92522.024    238.01707    20721    226720.83    52.691166    4.7224764    27.298928    126.05209    434.95774    23.513615    22.167921   0.55873164    435.51647    -2506.704 
   13800    -102223.1   -92479.134    236.65368    20721    226656.47   -11.681541   -13.875116   -179.81161     158.6421    434.82152    23.513959    22.168246   0.62683932    435.44836   -2548.9196 
   13900   -102276.55   -92476.806    238.00858    20721    226708.02   -41.681954   -38.720765    258.04806   -344.37316    435.03216    23.510939    22.165399   0.52151871    435.55368   -2545.8951 
   14000   -102109.13   -92446.601    234.67595    20721    226485.43     63.32776    114.73855     6.165422    69.079306     434.7362    23.507392    22.162054   0.66949851     435.4057   -2589.6394 
   14100   -102262.71    -92427.85    238.86142    20721    226852.44   -27.514177    -67.15155   -118.86636    103.47537    435.05856    23.517713    22.171785   0.50832105    435.56688   -2598.0088 
   14200   -102164.05   -92405.619    237.00522    20721    226531.95   -43.082894    46.699139   -99.265869   -76.681952    434.71472    23.510387    22.164878   0.68024046    435.39496   -2626.7607 
   14300   -102272.76   -92425.897    239.15291    20721    226629.98   -6.1748014    116.15774      11.0305   -145.71264    434.75943    23.514264    22.168533   0.65788334    435.41732   -2608.0161 
   14400   -102263.62    -92394.77     239.6869    20721    226794.78   -40.442346    7.9475305    208.05152   -337.32608    435.18978    23.511178    22.165624   0.44271068    435.63249   -2634.8993 
   14500   -102125.87   -92391.897    236.41099    20721    226671.66    109.61638    189.76949   -118.56976    257.64941    435.00438    23.509804    22.164329     0.535412    435.53979   -2647.0903 
   14600   -102178.34   -92330.638    239.17318    20721     226724.9   -32.650745   -79.002626   -244.28865    225.33905     435.0499    23.511335    22.165772    0.5126518    435.56255    -2703.406 
   14700    -102129.5   -92325.746     238.1059    20721     226764.9    49.305077    153.87069   -79.209621    73.254161    435.00909    23.514512    22.168767   0.53305552    435.54214   -2711.2531 
   14800   -102200.89   -92340.352     239.4851    20721    226688.98   -30.105292   -60.445326    5.7008677   -35.571418    435.07432    23.508812    22.163394   0.50043905    435.57476   -2696.9878 
   14900   -102027.13   -92267.105    237.04388    20721    226697.89    14.453546   -70.080535    65.962115    47.479057    435.14065    23.507483     22.16214   0.46727331    435.60793   -2770.4153 
   15000   -102127.15   -92241.379    240.09781    20721    226691.62    45.544686   -1.7414491    148.38687   -10.011366    435.15049    23.506892    22.161583   0.46235534    435.61284   -2799.7479 
   15100   -102041.86   -92285.622    236.95185    20721    226508.06    26.187051     58.18918    -84.97164    105.34361    434.86693    23.505032     22.15983   0.60413557    435.47106   -2759.4901 
   15200   -102038.55   -92217.606    238.52334    20721    226517.16    66.782159    39.354093    201.75794   -40.765559    435.06399    23.500181    22.155256   0.50560314     435.5696    -2831.396 
   15300   -102097.66   -92273.487     238.6019    20721    226622.64   -3.6317163   -13.357622   -191.76253      194.225    435.14335    23.503508    22.158393    0.4659267    435.60927   -2771.9911 
   15400   -102177.08   -92287.425    240.19208    20721    226552.83    2.9221117   -139.49884   -284.95998    433.22516     435.0004    23.503749     22.15862   0.53740231     435.5378   -2761.9567 
   15500   -101958.64   -92228.689    236.31348    20721    226609.27      68.6576    118.96505     4.261235    82.746521    434.85784    23.510529    22.165012   0.60867859    435.46652   -2820.9299 
   15600   -102095.74   -92216.283    239.94455    20721    226645.06   -43.731915   -121.89219   -51.737888    42.434333    435.04526     23.50732    22.161987   0.51497203    435.56023    -2828.979 
   15700   -102079.18   -92166.606    240.74876    20721    226748.61    97.447227     91.00708    340.26191   -138.92731    435.09034    23.511472    22.165901   0.49242936    435.58277   -2884.1906 
   15800   -102082.79   -92193.979    240.17161    20721    226487.72     33.21028    123.53757   -215.37747    191.47075    434.90033    23.503075    22.157984   0.58743702    435.48776   -2862.7131 
   15900   -102057.19   -92219.971    238.91864    20721    226595.91    59.399275    39.652951   -111.22428    249.76915    434.89699    23.508778    22.163361   0.58910622    435.48609   -2836.1017 
   16000   -101990.67   -92217.664    237.35912    20721     226427.7     34.64442     60.79017   -67.011504    110.15459    434.88011    23.500506    22.155563   0.59754253    435.47766   -2840.8575 
   16100   -101998.93   -92220.106    237.50044    20721    226415.38    49.977275    4.6056362    1.3803299    143.94586    434.97033     23.49743    22.152663   0.55243593    435.52276   -2841.2795 
   16200   -102063.19   -92209.083    239.32877    20721    226503.91    67.895507    164.49126   -94.799364    133.99463    434.68988    23.509603    22.164139   0.69265822    435.38254   -2853.6842 
   16300   -102004.42   -92184.804    238.49106    20721    226570.62    27.943289     8.372516    194.32186    -118.8645     434.8175    23.509614    22.164149   0.62884883    435.44635   -2872.4856 
   16400   -102019.19   -92131.286    240.14969    20721    226442.22   -34.805544   -55.999831   -43.872585   -4.5442144    434.60479    23.508702     22.16329   0.73520356       435.34   -2926.2788 
   16500   -101978.98   -92144.094     238.8619    20721    226371.31   -16.472219    -92.34036    78.729207   -35.805504    434.64564    23.503917    22.158778   0.71477868    435.36042   -2919.5368 
   16600   -101973.64   -92128.867    239.10204    20721    226619.43   -12.700395   -58.319892    94.396591   -74.177882    434.59984    23.518034    22.172087   0.73767806    435.33752   -2928.9662 
   16700    -102017.7   -92101.689    240.83226    20721    226377.48    -125.5196   -99.621088   -222.37187   -54.565849    434.62329    23.504842     22.15965   0.72595662    435.34924   -2958.9307 
   16800   -101912.81   -92093.046     238.4947    20721    226394.71    86.370609    233.64596   -61.390119    86.855983    434.60554    23.506216    22.160946   0.73483239    435.34037   -2978.5999 
   16900   -101974.29   -92071.352    240.51485    20721    226473.68   -61.434904   -130.85991   -52.151815   -1.2929885    434.67148    23.508532    22.163129    0.7018593    435.37334   -2993.0324 
   17000   -101921.27   -92112.046    238.23872    20721    226142.39    -55.61954   -195.49257   -121.47579    150.10973    434.32918    23.500586    22.155638   0.87300873    435.20219   -2959.6634 
   17100   -101920.36   -92112.066    238.21622    20721    226124.65    13.698449   -12.266611   -32.514386    85.876345    434.34917    23.499124     22.15426   0.86301608    435.21218   -2968.1147 
   17200   -101915.82    -92124.25    237.81006    20721    226109.91     35.19463    124.57115   -157.18031    138.19305    434.29883     23.49972    22.154821   0.88818715    435.18701   -2958.0924 
   17300   -102017.62   -92095.918     240.9705    20721    226344.72   -73.084497     -62.1759    150.87613   -307.95372    434.40307    23.509098    22.163662   0.83606517    435.23913   -2976.9711 
   17400   -101821.32   -92077.108    236.65977    20721       226197     87.09793    128.97373    198.39379   -66.073729    434.46802    23.499668    22.154773   0.80358997    435.27161   -3005.8873 
   17500   -101995.26    -92080.95    240.79101    20721    226338.52     -58.6275   -56.012176   -157.50337    37.633047    434.33669    23.510572    22.165052   0.86925604    435.20594    -2994.473 
   17600   -101936.38   -92084.704    239.26976    20721    226197.81    38.793592    38.435532    102.82105   -24.875804     434.4149    23.501147    22.156167   0.83014954    435.24505   -2999.4484 
   17700   -101940.05   -92077.721    239.52845    20721    226351.02   -30.591997    27.371625    -314.2502    195.10258    434.36997    23.510321    22.164815   0.85261627    435.22258   -2997.9822 
   17800   -101900.79   -92045.058    239.36826    20721    226185.33    44.791626    197.59579   -36.477692   -26.743218    434.27703    23.504228    22.159072   0.89908265    435.17612   -3044.7087 
   17900   -101889.42   -92035.622    239.32117    20721    226367.99   -8.9188949   -9.7928642   -123.15272     106.1889     434.2734    23.513815     22.16811   0.90089759     435.1743   -3045.3338 
   18000   -101886.53   -92034.643    239.27494    20721    226276.22    59.206158   -34.326371    103.76008    108.18476    434.27067    23.509123    22.163686    0.9022633    435.17294   -3052.2292 
   18100   -101889.52   -92046.685    239.05493    20721    226274.56    -17.16828    103.64644    37.682466   -192.83374    434.45798    23.503968    22.158827   0.80861128    435.26659   -3037.7253 
   18200   -101946.83   -91988.798    241.85275    20721    226375.82    13.864392   -96.978449    195.39826   -56.826637    434.51434    23.507702    22.162347   0.78043208    435.29477   -3099.0909 
   18300    -101977.9   -92051.668    241.08043    20721    226123.79   -65.098752   -107.28155   -65.149181   -22.865529    434.19233    23.503323    22.158218     0.941435    435.13376   -3040.6406 
   18400   -101886.48   -92021.559    239.59153    20721    226407.52    11.490256    32.048632    173.87681   -171.45468    434.38746    23.512781    22.167135    0.8438701    435.23133   -3065.7457 
   18500   -101826.31   -92000.589    238.63929    20721    226213.05     88.99195    53.285925    -102.0029    315.69283    434.15844    23.508879    22.163456   0.95838006    435.11682   -3097.6011 
   18600   -101864.21   -91973.839    240.20965    20721    226367.53   -19.504098   -150.27694   -308.43529    400.19993    434.15542    23.516987      22.1711   0.95989194    435.11531   -3113.6965 
   18700   -101863.55   -91959.035    240.55299    20721    226334.77   -25.308143   -78.830453    98.542472   -95.636449    434.31512    23.510961    22.165419   0.88003881    435.19516    -3130.523 
   18800   -101886.54   -91940.247    241.56769    20721    226261.64     10.69411    108.40449    346.29121   -422.61336    434.02847    23.514924    22.169155    1.0233666    435.05183   -3157.4085 
   18900   -101817.14   -91963.383    239.32033    20721    226423.18    -1.747875    22.775357     69.36604   -97.385022    434.17061    23.519466    22.173437   0.95229345    435.12291   -3130.0734 
   19000      -101795   -91885.391    240.67688    20721    226319.76   -50.698889    104.02011   -49.587679   -206.52909    434.22946      23.5125     22.16687    0.9228707    435.15233   -3209.2156 
   19100   -101735.31   -91888.844    239.14326    20721     226279.5    117.96595    136.52912     109.0726    108.29613    434.34768    23.507209    22.161882   0.86375999    435.21144   -3215.2794 
   19200   -101795.73   -91882.388    240.76748    20721    226188.46    48.070884    40.742624    72.423526      31.0465    433.99745    23.511961    22.166362    1.0388771    435.03632   -3222.0138 
   19300   -101757.97   -91852.982    240.56445    20721    226285.98    2.0686929    197.21933   -237.66052    46.647271    434.17695    23.512167    22.166556   0.94912748    435.12607   -3249.5188 
   19400   -101738.01    -91850.92    240.12985    20721    226372.27    2.2078011   -74.867715   -49.096041    130.58716     434.2306    23.515197    22.169413   0.92230046     435.1529   -3248.2591 
   19500   -101713.78   -91859.174    239.34093    20721    226186.73   -23.734197   -40.414456   -51.611145     20.82301    434.25076    23.505012    22.159811   0.91221811    435.16298   -3245.6222 
   19600      -101786   -91829.818     241.8079    20721    226388.41   -10.695207   -70.607652    21.058937    17.463092    434.29113    23.514396    22.168658   0.89203344    435.18317   -3270.9065 
   19700   -101699.61   -91807.616    240.24889    20721    226292.43    8.6047803    9.9887021   -143.67639    159.50203    434.27459    23.509859     22.16438   0.90030291     435.1749   -3297.0331 
   19800   -101687.47   -91766.005    240.96462    20721    226205.38    12.545919     11.42119   -67.959868    94.176435    434.17388    23.508063    22.162687   0.95066107    435.12454    -3344.069 
   19900   -101685.41   -91755.249    241.17595    20721    226322.64    58.505206    79.034692    115.24027   -18.759343    434.33069    23.509909    22.164428   0.87225672    435.20294   -3354.0084 
   20000   -101766.88    -91760.77     243.0206    20721    226285.91   -148.56398    -7.209589   -339.01894   -99.463411    434.42715    23.505392    22.160169   0.82402634    435.25117   -3341.3979 
   20100   -101734.89   -91756.917    242.33712    20721    226283.73   -34.556048    118.41512     78.68913   -300.77239    434.37881    23.506586    22.161295    0.8481974      435.227   -3351.4915 
   20200    -101658.8   -91723.196    241.30821    20721     226254.6    -3.854775    113.09246   -41.782368   -82.874412    434.26012    23.508285    22.162897    0.9075415    435.16766   -3388.2161 
   20300   -101719.95   -91739.225    242.40408    20721    226187.27   -80.544705   -89.918164   -181.96494    30.248988    434.27507    23.504383    22.159217   0.90006615    435.17513   -3372.9909 
   20400   -101605.28   -91721.635    240.04624    20721    226091.26   -7.9691268   -68.610739   -62.607741     107.3111    434.21648    23.500979    22.156009   0.92935816    435.14584   -3396.5578 
   20500   -101651.43   -91679.526    242.18967    20721    226048.98   -38.652912   -112.91005   -17.966278    14.917589    434.33928    23.495459    22.150805   0.86795888    435.20724   -3439.7099 
   20600   -101668.12   -91700.502    242.08579    20721    226110.52    0.3093718    102.85805   -33.534741   -68.395192    433.98227     23.50832     22.16293     1.046466    435.02873   -3421.7499 
   20700   -101578.65   -91679.609    240.42018    20721    226172.03   -41.424414    -48.36919   -23.937383   -51.966671    434.19912    23.505646    22.160409   0.93803859    435.13716    -3436.709 
   20800   -101740.08    -91682.07    244.28098    20721    226214.17   -64.449521   -312.58669    99.206124    20.032006    433.99348    23.513404    22.167723    1.0408611    435.03434   -3434.9516 
   20900   -101600.24   -91614.669    242.52175    20721    226211.55   -8.8223698    -50.57696     68.02458   -43.914729    434.09573    23.510499    22.164984   0.98973495    435.08547   -3505.2854 
   21000   -101615.04   -91646.868    242.09915    20721     225925.6   -2.1109226   -93.523765   -118.07038    205.26137    434.10695    23.495331    22.150684   0.98412699    435.09107   -3483.8638 
   21100   -101558.85    -91645.31    240.77227    20721    226185.79    11.908804    35.329555   -182.64908    183.04593    434.42216    23.500326    22.155393   0.82652062    435.24868   -3480.0058 
   21200   -101608.87   -91668.257    241.42968    20721    226188.34    42.617568    79.286363   -289.28117    337.84751    434.26228    23.504784    22.159596   0.90645766    435.16874   -3459.7156 
   21300    -101550.4   -91667.251    240.03415    20721    226371.64   -49.903317   -87.479987    50.994018   -113.22398    434.30693    23.513097    22.167433   0.88413632    435.19106   -3450.7703 
   21400   -101561.01   -91674.083    240.12588    20721    226284.25   -23.576876    46.957683    24.243268   -141.93158    434.19128    23.511689    22.166106   0.94196236    435.13324   -3445.7375 
   21500   -101661.41   -91648.552    243.18434    20721    226368.25   -33.642257   -22.114237    59.698057   -138.51059    434.35217    23.511697    22.166113   0.86151623    435.21368   -3476.5534 
   21600   -101594.19   -91626.149    242.09601    20721    226365.14    22.476743    90.066227    -172.0475     149.4115    434.38212    23.510725    22.165197   0.84653957    435.22866    -3498.581 
   21700   -101533.83   -91641.275    240.26256    20721    226330.73    38.808399    50.453695   -89.234421    155.20592    434.15664    23.515042    22.169266   0.95927939    435.11592   -3484.6107 
   21800   -101550.43   -91633.037    240.86593    20721    226047.71    25.249021    9.2703419    335.38379   -268.90707     434.1685    23.500014    22.155099   0.95335195    435.12185   -3501.4205 
   21900   -101579.81   -91592.571    242.56224    20721     226261.6   -46.892822    8.8714643   -59.291204   -90.258726    434.39714    23.504941    22.159744   0.83903098    435.23617    -3532.721 
   22000    -101592.4    -91570.73     243.3984    20721    226249.38   -51.829874   -53.109314   -16.537917   -85.842391    434.40384    23.504125    22.158974    0.8356823    435.23952    -3556.731 
   22100    -101574.6   -91598.331    242.29575    20721    226277.37   -51.018049    -105.2045   -179.43391    131.58427    434.58028    23.500806    22.155846   0.74746217    435.32774   -3530.5184 
   22200   -101600.43   -91575.386    243.48042    20721     226329.1    10.950174   -62.250149   -188.27683     283.3775     434.3288    23.510296    22.164792    0.8731994      435.202   -3555.3483 
   22300   -101505.75   -91581.496    241.03243    20721    226069.75    83.995632    54.864571    80.405328      116.717    434.22818    23.499544    22.154656   0.92351249    435.15169   -3561.1049 
   22400   -101516.16    -91542.05    242.24323    20721    226109.06    2.4579255    271.87395   -64.864578   -199.63559    434.21723    23.501884    22.156861   0.92898466    435.14622   -3596.9715 
   22500    -101480.9   -91518.236    241.96545    20721    226147.25   -9.4670861   -18.674438    48.048363   -57.775183     434.4319    23.498061    22.153257   0.82165234    435.25355   -3619.6786 
   22600   -101541.24   -91518.378    243.42741    20721    225959.56   -42.130763   -155.94208    342.75365   -313.20386    434.08486    23.497694    22.152912   0.99517006    435.08003   -3623.5533 
   22700   -101541.29    -91532.01    243.09744    20721    225898.27    -10.10099     63.54126   -20.763239   -73.080992    434.08452    23.494517    22.149916   0.99533766    435.07986   -3616.3471 
   22800    -101600.8   -91506.796    245.15518    20721    225811.48   -171.20261   -104.25041   -38.963727    -370.3937    433.91683    23.494541    22.149939    1.0791836    434.99602   -3638.2782 
   22900   -101497.94   -91526.806    242.17115    20721    225897.08   -70.275205   -256.87262   -68.364369    114.41138     433.7599    23.503245    22.158145    1.1576499    434.91755   -3620.4577 
   23000   -101421.08   -91499.507     240.9674    20721    225787.51     70.88573    211.43393    186.09874   -184.87548    433.72735    23.498426    22.153601    1.1739245    434.90128   -3659.5865 
   23100   -101433.65   -91491.417    241.46921    20721    225904.91   -3.9685581     7.478003   -212.30722    192.92354    433.54666    23.509431    22.163977    1.2642699    434.81093   -3660.9699 
   23200   -101515.61   -91439.125     244.7297    20721     225904.3    -55.78146   -142.88753    124.91343   -149.37028    433.79893    23.502563    22.157502    1.1381365    434.93706   -3712.3209 
   23300   -101379.47   -91459.061    240.93919    20721    225815.69   -3.6229347   -47.034768   -187.30624     223.4722    433.61708     23.50288    22.157801    1.2290576    434.84614   -3697.2186 
   23400   -101460.38   -91441.678    243.32645    20721    225994.99   -30.726226    110.84207    14.608739   -217.62949    433.77065    23.508046    22.162671    1.1522741    434.92293   -3711.3873 
   23500   -101439.57   -91442.653    242.79736    20721    225779.92    37.878721    38.557199    94.640511   -19.561546    433.42571    23.506206    22.160937    1.3247462    434.75045   -3719.1705 
   23600   -101537.89    -91438.38    245.28898    20721    225923.09   -112.82109   -161.25003   -67.353553   -109.85968    433.70237    23.506157     22.16089    1.1864134    434.88879   -3713.9987 
   23700   -101442.38   -91462.113    242.39297    20721    225965.34    5.3854178    147.31011    29.405267   -160.55912    433.55576    23.512329    22.166709    1.2597211    434.81548   -3694.4668 
   23800   -101548.94   -91478.224    244.58973    20721    225764.75   -12.059544   -52.627427    168.83013   -152.38134    433.40161     23.50607    22.160808    1.3367938    434.73841   -3685.4536 
   23900   -101433.69    -91459.47    242.24601    20721    225773.89   -32.231241   -69.239968    3.8265045    -31.28026    433.50227    23.503816    22.158683    1.2864629    434.78874   -3702.4701 
   24000   -101407.35    -91425.39    242.43394    20721    226014.48    60.507695    79.050031     16.19831    86.274744    433.64236    23.512537    22.166905    1.2164197    434.85878   -3735.6305 
   24100   -101414.11   -91426.632    242.56799    20721    225809.42   -29.092694    -44.71433   -129.74325    87.179502    433.77355    23.498315    22.153497    1.1508249    434.92438   -3735.5716 
   24200   -101444.49   -91418.065    243.51404    20721    226026.15    32.943463   -148.18278     -23.6781    270.69126    433.55123    23.515615    22.169807    1.2619831    434.81322   -3745.9152 
   24300   -101447.32   -91373.116    244.67429    20721    225939.03   -30.178822    55.859588    156.21182   -302.60787    433.48724    23.512818     22.16717    1.2939788    434.78122   -3788.7849 
   24400   -101424.45   -91358.799    244.46652    20721    225819.46   -57.220905   -42.370729    74.114245   -203.40623     433.4881    23.506572    22.161282    1.2935488    434.78165   -3805.8587 
   24500   -101330.37   -91355.495    242.26198    20721    225955.01    79.657987    107.40758   -38.878863    170.44525    433.37313    23.516745    22.170872     1.351034    434.72417   -3813.4537 
   24600   -101265.54    -91365.13    240.45339    20721    225638.22     18.11265    17.094504   -145.40009    182.64353    432.96467    23.511337    22.165773    1.5552649    434.51994   -3811.9953 
   24700   -101454.04   -91354.699    245.28483    20721    226064.08   -28.165888    -35.55618   -177.31097    128.36949    433.33599    23.523428    22.177173    1.3696051    434.70559   -3808.5119 
   24800   -101331.96   -91363.329    242.11022    20721    225862.62    53.573689    216.12541   -174.42461    119.02027    433.32132    23.513342    22.167664    1.3769422    434.69826   -3811.7969 
   24900   -101326.38   -91323.338    242.94595    20721    226054.61    9.8410312    136.97432   -26.819362   -80.631867    433.43628    23.520214    22.174143    1.3194615    434.75574   -3844.0997 
   25000    -101487.3   -91310.341    247.17003    20721    226039.31   -91.075381   -353.91042    61.609831    19.074445    433.40656    23.520225    22.174153    1.3343218    434.74088    -3854.512 
   25100   -101369.89   -91360.693    243.09549    20721    226031.58   -61.969745   -49.137936    -190.5091      53.7378    433.50033    23.517278    22.171375    1.2874342    434.78777   -3806.7853 
   25200   -101374.46   -91313.812    244.34503    20721    225979.51    13.653277    126.25166   -41.483459   -43.808373    433.41559    23.516868    22.170988    1.3298046     434.7454   -3861.0142 
   25300   -101349.92   -91352.766    242.80291    20721    225755.77     24.19994   -50.632481    203.27361   -80.041305    433.09734    23.513858     22.16815     1.488932    434.58627   -3830.5252 
   25400   -101384.36   -91294.016    245.06624    20721    226039.63   -53.352747   -170.96997    58.639141   -47.727416    433.48196    23.518195     22.17224    1.2966201    434.77858   -3877.8242 
   25500   -101368.32   -91325.387    243.91475    20721    225922.47   -82.747311    -33.27971   -227.48407    12.521846    433.62611    23.508191    22.162808    1.2245454    434.85065    -3850.437 
   25600   -101243.19   -91288.963    241.76038    20721    225841.35    39.194091    16.236255    207.30281   -105.95679    433.39678    23.510188    22.164691    1.3392096    434.73599   -3894.6356 
   25700   -101402.72   -91297.546    245.42645    20721    225988.74   -107.74562    151.64597    -383.1688   -91.714039    433.62449    23.511683      22.1661    1.2253547    434.84985   -3877.2212 
   25800    -101354.7   -91298.701    244.23225    20721    226013.12   -16.259461    11.935777   -302.96184    242.24768    433.80586    23.508035    22.162661    1.1346701    434.94053   -3880.7569 
   25900   -101422.46   -91338.834    244.90323    20721    226058.64    13.293243    78.024931     34.05177   -72.196971    433.68332    23.513723    22.168024    1.1959394    434.87926   -3842.0715 
   26000    -101309.6   -91303.464    243.02117    20721    225981.59   -21.340071   -164.10651    171.28517   -71.198873    433.67183    23.510028    22.164539    1.2016867    434.87351    -3879.143 
   26100   -101350.82   -91267.282    244.90108    20721    226141.55   -45.735053   -227.47978    69.030957    21.243659    433.88041    23.512693    22.167052    1.0973947    434.97781   -3910.0776 
   26200   -101248.61   -91228.494     243.3606    20721    226071.86    78.487759    134.37277    140.67676   -39.586256    433.86431    23.509506    22.164047    1.1054455    434.96975   -3958.9218 
   26300   -101234.46   -91184.082    244.09554    20721    226081.57   -28.110552   -163.68081     45.88182    33.467337     433.5488    23.518564    22.172587    1.2632008      434.812   -3997.5981 
   26400    -101275.3   -91205.541    244.56634    20721    226155.99    96.202383   -54.786827    36.329512    307.06446    433.74642    23.517075    22.171184    1.1643889    434.91081   -3982.9892 
   26500   -101231.12   -91167.807    244.40994    20721     226341.6   -55.034367   -72.918828    134.32572   -226.50999     433.8265    23.524552    22.178233    1.1243481    434.95085   -4008.6561 
   26600   -101288.48   -91157.461    246.05428    20721    226127.65    50.247695    19.131975    26.934748    104.67636     433.6125    23.519233    22.173218    1.2313479    434.84385   -4035.0528 
   26700   -101153.42   -91133.821    243.34814    20721    226263.89    37.048468    324.63188   -108.72447     -104.762    433.76847    23.522087    22.175908    1.1533629    434.92184   -4052.5972 
   26800   -101239.41   -91170.268    244.55143    20721    225947.18    82.445482   -114.91873    412.16419   -49.909006    433.79781    23.504824    22.159633    1.1386927    434.93651   -4030.0754 
   26900   -101302.13   -91161.512    246.28732    20721    225896.65    70.772547    43.657022    25.153712    143.50691     433.6298    23.506748    22.161447    1.2226978     434.8525   -4039.6575 
   27000   -101212.62   -91180.048    243.66323    20721    226034.15    69.738542   -64.275837    480.91559   -207.42413    433.67762    23.512604    22.166969    1.1987885    434.87641   -4018.5616 
   27100   -101300.32   -91164.322    246.17515    20721    226162.02    1.4571844   -7.4167651   -39.025329    50.813647    433.68072     23.51917    22.173159    1.1972394    434.87796   -4029.8648 
   27200   -101187.34   -91174.141    243.19268    20721    226154.39    33.250573    122.50424    72.512798   -95.265319    433.71286    23.517902    22.171963    1.1811716    434.89403   -4019.8268 
   27300   -101270.92   -91155.019    245.68706    20721    226196.37    8.9791196    131.79723   -307.31036    202.45048    433.62623    23.522434    22.176236    1.2244837    434.85072   -4039.4538 
   27400   -101229.16    -91147.81    244.84783    20721    226307.02   -31.427328   -19.521319   -65.683027   -9.0776392    433.86896    23.521604    22.175453    1.1031216    434.97208   -4042.0273 
   27500    -101098.1   -91102.893    242.75584    20721    226290.23    62.259391    -41.96559    307.98231   -79.238553    434.21976    23.511229    22.165672   0.92771865    435.14748   -4092.9791 
   27600   -101220.92    -91091.27    246.02101    20721    226325.37   -17.727641    43.892927    41.312091   -138.38794    433.88234    23.522195     22.17601    1.0964315    434.97877   -4103.7603 
   27700   -101221.84   -91086.187    246.16669    20721    226311.75   -73.742692   -54.235129   -76.203086   -90.789863    434.12415    23.514935    22.169166    0.9755242    435.09968   -4106.2237 
   27800   -101221.42   -91095.875    245.92132    20721    226356.65    13.922367    76.890869    61.546963   -96.670731    434.16468     23.51617     22.17033   0.95526148    435.11994    -4099.747 
   27900   -101172.16   -91092.422    244.80876    20721    226237.84   -81.310004   -23.087426   -389.25723    168.41465    434.07328    23.512473    22.166845    1.0009619    435.07424   -4102.5342 
   28000   -101112.84   -91115.973    242.79611    20721    226405.07    133.63512    125.65989    198.69723    76.548252    434.24267    23.516573    22.170711   0.91626296    435.15894   -4085.6505 
   28100   -101125.34   -91051.791    244.65839    20721    226270.72    70.693266    28.936544   -65.429688    248.57294    434.32801    23.507285    22.161954   0.87359323    435.20161   -4150.1553 
   28200   -101246.54   -91056.763    247.48125    20721    226327.22    15.240584    245.64613    54.184493   -254.10887    434.24601     23.51244    22.166813   0.91459372    435.16061   -4145.1126 
   28300   -101205.09   -91096.232     245.5161    20721    226309.57    51.035849    152.58544   -3.6431694    4.1652748    434.26015     23.51114    22.165588   0.90752727    435.16767    -4106.723 
   28400   -101165.93   -91081.768    244.91616    20721    226361.01    44.199768   -19.664388    309.12506   -156.86137    434.06262    23.519162    22.173151    1.0062901    435.06891   -4119.9255 
   28500   -101222.69    -91051.22    247.03665    20721    226165.69   -16.810635    -26.39672    182.55537   -206.59056     433.8682    23.514279    22.168547    1.1034992     434.9717   -4157.5201 
   28600   -101025.56   -90982.144    243.92654    20721    226221.27    90.578962    271.43969   -26.911412    27.208607    434.11957    23.510358    22.164851   0.97781633    435.09738   -4227.8934 
   28700    -101144.4   -90998.701     246.4108    20721    226119.95    56.330063    158.07001   -207.19105    218.11123     434.0518    23.506928    22.161617    1.0116999     435.0635   -4214.0067 
   28800      -101152   -91011.856    246.27586    20721    226050.62    -63.18816   -215.69345   -143.98268    170.11165    434.16115    23.500364    22.155429   0.95702639    435.11817   -4201.7669 
   28900   -101149.27   -90997.807    246.55075    20721    226189.34    22.078644   -8.6644927   -158.08459    232.98501    434.42513     23.50043    22.155491   0.82503344    435.25017   -4215.9137 
   29000   -101117.57   -90990.118    245.96752    20721    226042.57    93.965837     95.43092   -239.23007    425.69666      434.091    23.501844    22.156824   0.99210068     435.0831   -4233.3669 
   29100   -101011.14   -90987.586     243.4443    20721    226000.36     105.2707    69.111282    175.14991    71.550909    433.95028     23.50346    22.158347    1.0624585    435.01274   -4236.8471 
   29200   -101016.97   -91002.461    243.22441    20721    226037.67    45.742694   -11.440372    60.376369    88.292085    434.12454    23.500682    22.155728   0.97532997    435.09987   -4219.4698 
   29300   -101141.95   -90999.217    246.33864    20721    225907.45    65.164008   -3.9447801   -47.302294     246.7391    433.98494    23.497689    22.152907    1.0451296    435.03007   -4230.1429 
   29400   -101173.03   -90980.125    247.55735    20721    226032.93   -33.497967   -108.82609   -35.133539    43.465727    433.78084    23.509744    22.164272     1.147179    434.92802   -4242.7725 
   29500   -101144.25   -90973.605    247.01672    20721       225919   -8.4629813    104.26182   -69.040755   -60.610014    433.69616    23.506112    22.160848     1.189519    434.88568   -4254.9964 
   29600   -101047.05   -90988.329    244.29832    20721     225983.2   -23.308877   -87.810204    370.56228    -352.6787     433.5273     23.51403    22.168313    1.2739523    434.80125   -4236.2653 
   29700   -101029.17   -91008.427    243.37598    20721    225922.92    56.868073   -27.725376    74.456605    123.87299    433.71226     23.50588    22.160629    1.1814708    434.89373   -4224.9198 
   29800   -101152.39   -90995.575    246.68064    20721     225816.9   -2.4314693   -44.368018    10.001093    27.072517    433.59869    23.503441     22.15833    1.2382544    434.83695   -4239.5017 
   29900    -101215.3   -91013.769    247.76671    20721    226041.86     50.78761     5.174629    186.13781   -38.949605    433.75679    23.510859    22.165323    1.1592053    434.91599   -4219.2109 
   30000   -101093.82   -90974.622    245.76704    20721    226039.39   -43.828589    45.150225   -177.38826   0.75226352    433.71715    23.511805    22.166215     1.179023    434.89618   -4254.6719 
   30100    -101153.5   -90977.225    247.15335    20721    225893.07    53.702018    32.500773    79.992347    48.612935     433.7752    23.502621    22.157557     1.149998     434.9252   -4261.8894 
   30200   -101126.75   -90972.055    246.62913    20721    225954.59    1.1516627   -4.5011788   -99.700045    107.65621    433.87314    23.503168    22.158073    1.1010299    434.97417   -4265.3415 
   30300   -101154.14   -90990.356    246.85007    20721    225927.24   -3.8695429   -43.411673    72.022406   -40.219362    434.00024    23.498305    22.153487    1.0374812    435.03772   -4247.6069 
   30400   -101045.73   -90968.926    244.73758    20721    226125.43    74.602621   -33.665627    142.98692    114.48657    434.02836    23.507847    22.162484    1.0234177    435.05178   -4267.0876 
   30500   -101080.88   -90934.603     246.4249    20721    226010.79   -72.490121   -99.462048   -46.951851   -71.056463    433.84233    23.506926    22.161615     1.116433    434.95877   -4299.1635 
   30600   -101153.87   -90929.143    248.33023    20721    226040.51    45.967191   -9.0937613   -101.40356    248.39889    433.76636     23.51053    22.165013    1.1544202    434.92078   -4311.1625 
   30700   -101066.93   -90935.227    246.07094    20721     226147.5   -42.827419   -112.03856   -268.91106    252.46737    433.81447    23.514789    22.169029    1.1303636    434.94484   -4298.0558 
   30800   -101093.61   -90895.198    247.69106    20721    225869.73   -30.222058    57.287886    176.22784    -324.1819    433.46286    23.509873    22.164394    1.3061697    434.76903    -4347.339 
   30900   -101155.99   -90940.867      248.097    20721    226016.34   -41.175212    35.462837    16.695508   -175.68398    433.69486    23.511211    22.165655    1.1901703    434.88503   -4298.4997 
   31000   -101022.49   -90959.706    244.39709    20721    225792.03    87.691294   -164.75185   -65.630475    493.45621    433.44438     23.50633    22.161054    1.3154124    434.75979   -4294.5867 
   31100   -101031.75   -90938.307     245.1415    20721    225851.41   -29.013249   -125.18254    -102.8043     140.9471    433.38214    23.511109    22.165559    1.3465323    434.72867   -4309.6061 
   31200   -101039.88    -90924.22    245.68129    20721       225869   -41.788131    21.544371   -17.899826   -129.00894    433.31357    23.513885    22.168176    1.3808162    434.69438   -4321.9401 
   31300   -100956.03   -90904.433    244.12515    20721    225939.08    1.9678143   -53.259518    96.728788   -37.565827    433.45913    23.513583    22.167891    1.3080325    434.76717   -4342.3491 
   31400   -101105.72   -90884.826    248.23702    20721    225955.61    87.123737    56.902663    49.577499    154.89105    433.54729    23.512052    22.166448    1.2639532    434.81125   -4368.3789 
   31500   -100984.22   -90846.357    246.22052    20721    225875.53    99.547615   -147.56042   -15.084334     461.2876    433.41592    23.511448    22.165878    1.3296401    434.74556   -4409.3213 
   31600   -100931.71   -90838.026    245.14745    20721    225761.12    46.424695   -95.979976     512.4781   -277.22403    433.04936    23.515439    22.169641    1.5129198    434.56228   -4418.8312 
   31700   -100931.86   -90823.513    245.50352    20721    225890.41    91.750397    355.87277   -275.84598    195.22439    433.01841    23.523012    22.176781    1.5283968     434.5468   -4433.6919 
   31800   -101049.76   -90859.431    247.49473    20721    225751.32    33.455795   -38.450425    77.587486    61.230324    432.93836    23.517943    22.172002    1.5684181    434.50678   -4402.0024 
   31900   -101046.48   -90800.205    248.85349    20721     225749.2    30.603632    65.866003      23.8423    2.1025935    433.07942    23.514002    22.168286    1.4978886    434.57731   -4461.8611 
   32000   -101000.16   -90835.262    246.87696    20721    225597.95    40.857726    44.968185    19.576977    58.028015    432.76245    23.514731    22.168973    1.6563729    434.41883   -4432.9546 
   32100   -100953.59   -90831.354    245.84091    20721     225697.5    67.416134    243.93338    129.00811   -170.69309    433.02591    23.512762    22.167117    1.5246465    434.55055    -4434.944 
   32200   -100928.49   -90781.959      246.431    20721    225752.93    4.6910086   -36.644386    79.001425   -28.284013    432.86374    23.520054    22.173992    1.6057312    434.46947   -4481.0157 
   32300   -101084.49   -90819.531    249.30719    20721       225702    47.543203    35.868983   -43.034046    149.79467    432.60391    23.524462    22.178148    1.7356463    434.33955   -4450.1489 
   32400   -100938.02   -90824.127    245.63826    20721    225567.39    3.7520374    89.565075    -54.47856   -23.830403    432.71662    23.514383    22.168645    1.6792911    434.39591   -4444.9774 
   32500   -101113.51   -90867.254    248.85309    20721    225571.94   -72.066911   -29.524557   -150.99399   -35.682188    432.62486    23.517114     22.17122    1.7251717    434.35003   -4401.6896 
   32600   -101020.35   -90811.321    247.94887    20721    225513.89   -8.6272278    -26.02672     -164.578    164.72304    432.83232    23.508451    22.163053    1.6214396    434.45376   -4460.0761 
   32700   -100953.07   -90811.382    246.31339    20721    225784.66    10.878669    12.912641    78.135677   -58.412313    433.00655    23.517827    22.171893     1.534327    434.54087   -4454.3769 
   32800   -101014.26   -90836.822    247.18164    20721    225603.25    46.490538   -47.651826   -25.387017    212.51046    433.00874    23.508318    22.162928    1.5332305    434.54197   -4440.5989 
   32900    -100972.5   -90800.175    247.05738    20721    225567.51   -33.014107    34.845602    23.065869   -156.95379     432.9572    23.507855    22.162491    1.5590001     434.5162   -4473.9455 
   33000   -100985.79   -90782.392    247.81216    20721    225589.54   -38.497303   -179.11692   -192.94005    256.56507    432.85965    23.511652     22.16607    1.6077743    434.46743   -4493.7189 
   33100   -100936.75   -90760.091    247.16263    20721    225578.67   -21.163217     94.83745   -280.59655    122.26945    432.89404    23.510152    22.164656    1.5905791    434.48462    -4516.873 
   33200   -100948.75    -90778.62    247.00408    20721    225573.01    33.274825    80.723338    101.85468   -82.753547    432.99886    23.507011    22.161695    1.5381687    434.53703   -4501.8143 
   33300    -100946.1   -90742.082    247.82716    20721    225764.24   -53.342878    -114.5553   -31.073743   -14.399596    433.40801     23.50587    22.160619    1.3335967     434.7416   -4530.2896 
   33400   -100895.54   -90751.189    246.37796    20721    225573.61    49.872191   -186.79441      9.76486    326.64612    432.99938    23.507028    22.161711    1.5379108    434.53729   -4533.1611 
   33500   -100973.17   -90720.524    249.00817    20721    225838.63   -30.952826   -3.3209658   -44.340329   -45.197184    433.18202    23.515874    22.170051    1.4465883    434.62861   -4555.2849 
   33600   -100843.99   -90711.336    246.09392    20721    225670.69    75.539417    75.565993    108.07209    42.980166    433.12619    23.508644    22.163234    1.4745058    434.60069   -4573.5262 
   33700   -100945.25   -90698.849    248.85664    20721    225968.76    88.138576    96.457987    224.31663   -56.358891    433.35102    23.518061    22.172113     1.362091    434.71311   -4578.3197 
   33800   -101002.21   -90728.937    249.50909    20721    226105.47   -18.226946   -245.87255    204.57761   -13.385893    433.52431    23.520471    22.174385    1.2754446    434.79976    -4540.966 
   33900   -100958.16   -90697.963    249.19158    20721     226069.7    37.949159   -49.027908   -16.753404    179.62879    433.47216    23.520026    22.173965    1.3015177    434.77368    -4577.559 
   34000    -100952.9   -90713.039    248.69781    20721    226082.73   -23.026404    57.476635   -91.891565   -34.664282    433.69022     23.51479    22.169029    1.1924897    434.88271   -4559.1982 
   34100   -100866.54   -90648.571    248.16604    20721    226105.01   -31.871296    171.24322   -57.256729   -209.60037    433.72721    23.514945    22.169176    1.1739961     434.9012   -4622.0374 
   34200   -100889.93    -90666.34    248.30263    20721     226075.7   -63.437177   -117.51465   -123.71824    50.921364    433.69024    23.514424    22.168684    1.1924813    434.88272   -4605.0647 
   34300   -100923.35   -90660.508    249.25587    20721     226084.5   -7.2928692   -86.901729    51.054252     13.96887    433.58862    23.517636    22.171712    1.2432876    434.83191   -4615.2431 
   34400   -100893.73     -90647.7    248.84751    20721    225917.25   -67.008206       76.741   -165.68738   -112.07824    433.52956    23.510537     22.16502    1.2728222    434.80238   -4631.2354 
   34500   -100949.86   -90670.971    249.64552    20721     225802.7   -85.033485     91.98541   -229.23569   -117.85018    433.42915    23.507298    22.161966    1.3230268    434.75217    -4612.553 
   34600   -100919.54   -90639.181    249.68129    20721    225854.59   -21.083254    -207.3619    77.094294    67.017846      433.448    23.509488    22.164031    1.3136012     434.7616    -4646.261 
   34700   -100861.08   -90641.911    248.19522    20721    225773.19   -37.757846    38.015209    75.740644   -227.02939    433.54179    23.502709    22.157639     1.266704     434.8085   -4647.5096 
   34800   -100878.53   -90621.521    249.11416    20721    225687.48   -69.249087    252.49561   -222.63127    -237.6116    433.47673    23.500011    22.155096    1.2992361    434.77596   -4668.4449 
   34900   -100876.05   -90619.153     249.1114    20721    225862.26   -63.782003   -233.44326     207.0652   -164.96794    433.85488    23.498861    22.154012    1.1101624    434.96504   -4667.1179 
   35000   -100818.54   -90599.373    248.19516    20721    225790.22    81.927832    51.910788   -89.793457    283.66617    433.35919    23.508546    22.163143    1.3580062    434.71719    -4699.232 
   35100   -100883.99   -90602.384    249.71156    20721    225828.34    17.367326    22.897141   -1.3817731     30.58661    433.49345     23.50689    22.161581    1.2908769    434.78432   -4691.8456 
   35200   -100911.39   -90571.075    251.13746    20721    225795.36    20.680881    15.881338   -32.968847    79.130152    433.33001    23.509605    22.164141    1.3725937    434.70261   -4726.7749 
   35300   -100861.19   -90528.709    250.94725    20721    225901.93   -136.35036   -209.35736   -234.97196    35.278247    433.46539     23.51148    22.165909    1.3049058    434.77029   -4756.6332 
   35400   -100790.48   -90541.677    248.91482    20721    225696.64   -60.224959   -200.04548   -70.762739    90.133342    433.44671    23.501301    22.156312    1.3142455    434.76095   -4754.1457 
   35500   -100857.13   -90544.738    250.45926    20721    225891.21   -10.876775   -78.133089    43.025261    2.4775015    433.63156    23.506417    22.161136    1.2218188    434.85338   -4748.6627 
   35600   -100868.44     -90494.5      251.954    20721    225975.06    44.245266    200.03128    172.53028   -239.82576    433.64154    23.510509    22.164993    1.2168317    434.85837   -4799.9639 
   35700   -100742.75   -90512.305    248.46906    20721    225850.33   -34.276242   -63.980955   -44.013418    5.1656476    433.60778    23.504935    22.159738    1.2337107    434.84149   -4782.6473 
   35800   -100884.94   -90490.905    252.44216    20721    226065.23   -32.946061    -24.28022    125.97903   -200.53699     433.6081    23.516106     22.17027     1.233549    434.84165    -4799.623 
   35900   -100714.78   -90478.199    248.61808    20721    225962.72    39.287098   -70.576035     7.095169    181.34216     433.4483    23.515107    22.169328    1.3134517    434.76175   -4820.0082 
   36000   -100685.76   -90442.678    248.77603    20721    225964.64    7.8414466   -49.125778    68.476782    4.1733356    433.54257     23.51265    22.167012    1.2663152    434.80888   -4854.0762 
[...]
  491300   -93588.894    -80904.37    308.07173    20721    221038.83   -21.143148   -1.9254023   -220.11092    158.60687    421.76919      23.5773    22.227962    7.1530041     428.9222    -21936.25 
  491400   -93549.092   -80891.303    307.42241    20721    220781.81     19.80603    9.8376034    142.98215   -93.401663    421.57825    23.568924    22.220065    7.2484731    428.82673   -21964.942 
  491500     -93585.3   -80883.445    308.49266    20721    220871.37   -58.313961    165.92631   -44.176204   -296.69199    421.85007    23.566108     22.21741    7.1125667    428.96263   -21967.053 
  491600   -93500.142   -80879.565    306.51865    20721    220813.97    84.003787    96.085535    83.049294    72.876533    421.55591    23.571265    22.222272    7.2596444    428.81556   -21980.801 
  491700   -93716.464   -80897.892    311.32741    20721    220733.04   -21.952544   -9.3870392   -66.054661    9.5840669    421.49508    23.568646    22.219803    7.2900578    428.78514   -21963.388 
  491800   -93570.453   -80881.078    308.18954    20721    221014.53    99.237244   -260.44653    76.423887    481.73438    421.68593    23.578332    22.228934    7.1946371    428.88056   -21978.804 
  491900   -93697.126   -80905.734    310.66725    20721    220774.56   -96.436997    -117.2817   -212.63788    40.608589    421.54183    23.569555     22.22066    7.2666872    428.80851   -21958.705 
  492000   -93604.575   -80936.343    307.67604    20721    220853.96   -97.737037   -131.87829   -226.47361    65.140788    421.31934    23.580017    22.230523    7.3779306    428.69727    -21924.27 
  492100   -93594.053   -80890.908    308.52401    20721    220426.31   -46.830094   -32.990937   -60.912746   -46.586597    420.95743      23.5673    22.218534    7.5588852    428.51631   -21990.682 
  492200   -93434.206   -80875.888    305.00655    20721    220534.01   -63.530369    83.562342   -111.73248   -162.42097    421.30356    23.563372     22.21483    7.3858184    428.68938   -22000.448 
  492300    -93681.08   -80881.032    310.87749    20721    220818.93   -37.957334     35.90008    -59.95004   -89.822043    421.52693     23.57234    22.223286     7.274135    428.80107   -21991.795 
  492400   -93510.226   -80881.818    306.70884    20721    220840.16    4.6252936   -65.412718    171.54765   -92.259051     421.4361    23.576014    22.226749    7.3195518    428.75565   -21992.553 
  492500   -93606.909   -80879.729    309.10774    20721    221243.76     112.6049     138.7093     149.5966    49.508795    421.66707    23.591083    22.240956    7.2040671    428.87113   -21988.167 
  492600   -93633.471   -80818.118    311.24922    20721    220862.01   -123.01068   -133.49922   -342.32782      106.795    421.65593    23.571033    22.222054    7.2096368    428.86556   -22055.053 
  492700   -93610.599   -80843.729    310.07168    20721    220893.26   -39.721796   -164.64193   -95.632778    141.10932    421.47031    23.577891    22.228519    7.3024468    428.77275   -22030.623 
  492800    -93515.55    -80910.12    306.15078    20721    220541.29    7.4351109   -129.98416    116.61964    35.669845    421.24297    23.565456    22.216795    7.4161157    428.65908   -21984.603 
  492900   -93579.911   -80898.145    308.00475    20721    220653.72   -18.254091   -37.578063   -89.219637    72.035427    421.49462    23.564424    22.215822    7.2902894    428.78491   -21992.851 
  493000   -93656.709   -80851.645    310.99931    20721    220556.79    50.301903    162.08512   -171.71986    160.54045    421.80488    23.550581    22.202772    7.1351586    428.94004   -22049.026 
  493100   -93504.098   -80849.799    307.33766    20721    220922.71    94.785115    287.68979   -13.324059    9.9896102    422.20379    23.558972    22.210682    6.9357028     429.1395   -22040.437 
  493200   -93490.749   -80868.786    306.55231    20721    220516.14    38.243689    178.56155   -191.03686    127.20638    422.05074    23.541551    22.194258    7.0122283    429.06297   -22034.715 
  493300   -93626.996   -80910.151    308.85672    20721    220723.32   -72.644624    224.68435    76.072067   -518.69028    421.82216    23.558988    22.210698    7.1265216    428.94868   -21984.404 
  493400   -93550.017    -80927.29    306.57086    20721    220636.91     4.292262    90.517384    108.87081   -186.51141    421.92998    23.551366    22.203512    7.0726119    429.00259   -21977.237 
  493500   -93626.255   -80923.908    308.50462    20721    220855.15   -22.618866   -27.233248   -89.566111     48.94276    422.10198     23.55821    22.209964    6.9866087    429.08859   -21973.726 
  493600    -93611.64   -80915.441    308.35528    20721    220599.33    160.89067    379.30039    291.09772   -187.72611    421.82811    23.552204    22.204302    7.1235454    428.95165   -22001.491 
  493700   -93578.049   -80923.849    307.33525    20721    220666.68     44.81701    73.952399    -186.5122    247.01083      421.636    23.561164    22.212749    7.2195979     428.8556   -21987.337 
  493800   -93589.763   -80876.923    308.75946    20721    220841.51   -98.982219   -292.90305    208.93029    -212.9739    421.67112    23.569515    22.220622    7.2020385    428.87316   -22022.667 
  493900   -93637.602   -80909.777     309.1234    20721    220591.92   -45.668551   -69.766797   -20.373797   -46.865059    421.12062    23.571584    22.222572    7.4772905    428.59791   -22002.962 
  494000   -93557.734   -80853.766    308.54398    20721    220834.08   -127.41192   -223.25751   -49.614104   -109.36416    421.20167    23.582249    22.232628    7.4367671    428.63843   -22047.525 
  494100   -93428.378   -80894.163    304.42116    20721    220681.98   -17.020058    152.21729   -2.9428324   -200.33463    420.81612    23.584923    22.235148    7.6295392    428.44566   -22019.086 
  494200     -93616.7   -80944.026    307.78393    20721    220387.73   -78.428768   -20.537357   -183.93826    -30.81069     421.1341    23.560294    22.211929    7.4705496    428.60465    -21982.83 
  494300   -93621.517   -80956.325    307.60224    20721    220557.85    95.024684    210.60231    162.46313   -87.991381    421.34002    23.563626     22.21507    7.3675909    428.70761   -21974.484 
  494400   -93655.579   -80953.101     308.5078    20721    220394.32    62.490113    214.36088   -17.739904   -9.1506345    420.84224    23.568815    22.219962     7.616481    428.45872   -21985.252 
  494500   -93716.257   -80966.714    309.65085    20721     220373.2    31.873651    93.880566   -70.954244    72.694632    420.92319     23.56542    22.216761    7.5760061    428.49919   -21971.666 
  494600     -93625.7   -80906.593    308.91165    20721    220599.13    58.943593    160.42031    298.44644   -282.03597    420.97988    23.575909     22.22665    7.5476579    428.52754   -22025.562 
  494700   -93708.537    -80894.19    311.22477    20721    220349.46   -117.17057   -156.60071    80.853247   -275.76423    420.88466    23.565229    22.216581     7.595269    428.47993   -22041.298 
  494800   -93545.504   -80871.809    307.80873    20721    220453.27   -3.8977524    -41.23362    171.23271   -141.69235    421.00002    23.567549    22.218769    7.5375892    428.53761   -22064.386 
  494900   -93566.824   -80916.475    307.24171    20721    220133.63   -67.606406   -147.23869   -66.817869    11.237345    420.66336     23.55988    22.211539    7.7059184    428.36928   -22030.213 
  495000   -93534.687    -80891.38    307.07071    20721    220160.56     31.29535    21.075829   -63.009107    135.81933     420.6251    23.562392    22.213907    7.7250522    428.35015   -22062.201 
  495100    -93731.55   -80895.096     311.7617    20721    220165.61   -151.84403    -345.0125   -74.306365   -36.213228    420.54674    23.564858    22.216232    7.7642319    428.31097   -22053.037 
  495200   -93516.076   -80885.943    306.75074    20721    220205.47    143.50498    116.30039    296.92116    17.293396    420.55732    23.566694    22.217963    7.7589386    428.31626   -22075.194 
  495300   -93520.749   -80899.615    306.53219    20721    220246.37   -2.8502342   -104.88627    339.17805   -242.84249    420.97001    23.557327    22.209132    7.5525946    428.52261   -22053.844 
  495400    -93639.31   -80885.275    309.75997    20721    220233.76    -64.02983    69.292358   -323.58378    62.201927    420.94535    23.557343    22.209147    7.5649245    428.51028   -22069.847 
  495500   -93657.782   -80903.182    309.77371    20721    220515.86    56.702961    135.88262    97.053676   -62.827414    420.92507    23.572993    22.223901    7.5750654    428.50013   -22048.662 
  495600   -93595.416   -80881.947    308.77472    20721    220613.03   -34.423091    207.42769   -64.279656    -246.4173    421.15828    23.571658    22.222642    7.4584598    428.61674   -22064.688 
  495700   -93574.711   -80856.204    308.89709    20721    220414.39    47.988339    35.624114   -55.165349    163.50625    421.38327    23.554752    22.206704    7.3459628    428.72924   -22102.413 
  495800   -93453.899   -80835.982    306.45404    20721    220260.09    133.57067    189.55103    227.68417   -16.523203    421.35749    23.547227     22.19961    7.3588572    428.71634   -22133.815 
  495900   -93586.401   -80876.874      308.679    20721    220299.78   -57.972963   -59.883985   -155.55276    41.517854    421.70448    23.539657    22.192473    7.1853584    428.88984    -22085.89 
  496000   -93439.807   -80803.899    306.89101    20721    220321.05    60.110533    107.20418    119.56056   -46.433141    421.45908    23.547646    22.200005    7.3080599    428.76714   -22162.482 
  496100   -93598.772    -80804.55      310.736    20721    220649.49   -32.420818   -59.166921   -23.786831     -14.3087    421.73708    23.557423    22.209222    7.1690576    428.90614   -22146.438 
  496200   -93600.666   -80817.785    310.46054    20721    220348.34   -90.871093   -49.617891   -215.63663   -7.3587568    421.46875    23.548835    22.201125    7.3032229    428.77198   -22146.561 
  496300     -93459.2    -80799.97    307.45741    20721    220604.04    170.38504   -32.409686     210.5572    333.00759    421.74335    23.554822     22.20677    7.1659273    428.90927   -22164.322 
  496400   -93552.537   -80808.333    309.52121    20721    220494.97   -32.938379   -236.20214    226.38325    -88.99625    421.28425    23.561826    22.213374     7.395476    428.67972   -22154.206 
  496500   -93584.635   -80808.423    310.29858    20721    220670.62    205.32735    299.16228    322.72257   -5.9027997    421.55047    23.563765    22.215201    7.2623669    428.81283   -22161.813 
  496600   -93420.533   -80865.825    304.91887    20721    220229.61    13.501302   -61.959249   -116.79565    219.25881    421.01141    23.555273    22.207195    7.5318956     428.5433   -22116.442 
  496700   -93622.348   -80852.973    310.13253    20721    220873.39    115.75774    129.32383    277.67775   -59.728362    421.30174    23.581547    22.231966    7.3867325    428.68847   -22111.594 
  496800   -93471.502   -80827.715    307.08235    20721    220628.74   -45.243556    5.8078873   -51.579879   -89.958677    421.44151    23.564574    22.215964    7.3168448    428.75836    -22140.76 
  496900   -93588.813   -80855.606     309.2541    20721    220307.35   -36.245041     8.307067   -67.372704   -49.669485     421.2687    23.552234     22.20433    7.4032479    428.67195   -22125.501 
  497000    -93529.47   -80850.395    307.93941    20721    220455.13    97.768127    327.08909    32.695418   -66.480125    421.47079    23.554483    22.206451    7.3022045      428.773    -22133.71 
  497100   -93527.031   -80852.401    307.83144    20721    220688.17     63.02784   -21.403161    216.83003   -6.3433476    421.24459    23.573256    22.224149    7.4153056    428.65989   -22124.255 
  497200   -93582.247   -80845.825    309.33221    20721    220327.12   -83.536759    28.481743   -29.478707   -249.61331    421.20499    23.555072    22.207006    7.4351044     428.6401   -22138.782 
  497300   -93590.235   -80868.057    308.98624    20721    220457.73   -35.658236   -216.46075    70.636178    38.849869    421.08187    23.565498    22.216835    7.4966661    428.57853   -22117.212 
  497400   -93608.536   -80859.445     309.6399    20721    220412.89   -120.78426    80.601141   -344.75287   -98.201043    420.94915    23.566815    22.218077     7.563025    428.51218    -22126.23 
  497500   -93546.913   -80844.032    308.51759    20721    220392.16   -74.523022  -0.16410281    139.25564    -362.6606    421.20022    23.558682    22.210409    7.4374888    428.63771   -22145.481 
  497600   -93625.577   -80790.088    311.73826    20721    220651.69   -203.34247   -371.07235   -226.99165    -11.96342     421.3501    23.568356     22.21953    7.3625489    428.71265   -22185.028 
  497700   -93610.174   -80786.751     311.4452    20721    220039.08   -105.95009    68.329529   -149.38328   -236.79652    421.11247    23.542256    22.194923    7.4813661    428.59383   -22219.222 
  497800   -93464.312   -80783.486    307.98191    20721    220348.81    121.81246      363.441    -92.48466     94.48104    421.10115    23.559136    22.210837    7.4870249    428.58818   -22223.358 
  497900   -93496.103   -80774.047    308.98329    20721     220828.9    110.51642   -2.2174419   -106.42815    440.19486      421.451    23.574996     22.22579    7.3121003     428.7631   -22218.115 
  498000   -93415.201   -80698.912    308.84323    20721     220750.2    44.494382    144.54467   -57.301572    46.240052    421.93994    23.557134     22.20895    7.0676302    429.00757   -22294.256 
  498100   -93496.042   -80724.993    310.17318    20721    220831.02   -14.480541    26.406525   -205.32483    135.47669    421.68289    23.568626    22.219784    7.1961537    428.87905   -22266.417 
  498200   -93438.638   -80726.618    308.73955    20721    220941.41    101.12641    101.98083   -27.108869    228.50727    421.90911    23.568195    22.219378    7.0830446    428.99216   -22267.385 
  498300   -93510.603   -80721.925    310.60134    20721    220750.71    36.400543    98.166498    260.14025   -249.10511    421.93742    23.557231    22.209041    7.0688881    429.00631   -22278.723 
  498400   -93507.426   -80747.327    309.90725    20721    220816.85    4.4131177   -100.97244    258.06885   -143.85706    422.01185    23.558682    22.210409    7.0316728    429.04353    -22251.39 
  498500   -93470.903    -80715.59    309.79099    20721    220604.24   -3.7464199   -90.838089    175.30965   -95.710825    421.97326    23.548415     22.20073    7.0509723    429.02423    -22292.46 
  498600   -93452.301   -80719.484    309.24464    20721    220506.56    99.312113    139.93641    86.336397    71.663527    422.05134    23.541023    22.193761    7.0119293    429.06327   -22299.318 
  498700   -93415.881   -80714.272    308.48669    20721    221000.09    19.928412     178.8083    102.68256   -221.70562    422.31639    23.559956     22.21161    6.8794044     429.1958   -22284.711 
  498800   -93424.487   -80781.024    307.07449    20721     220701.1  -0.95451034    -94.97218   -154.48523    246.59387    422.48028    23.539446    22.192274    6.7974605    429.27774   -22229.057 
  498900    -93462.48   -80793.607    307.69163    20721    220458.88   -47.483687   -87.747589   -254.89174    200.18827    421.99357    23.540089     22.19288    7.0408158    429.03438   -22226.748 
  499000   -93562.114   -80805.558     309.8212    20721    220462.86   -46.476299   -195.16462   -317.35065    373.08637    422.03623    23.539112    22.191959    7.0194863    429.05571   -22215.186 
  499100   -93508.001   -80767.705    309.42628    20721    220982.98   -58.008508    64.252146   -51.678754   -186.59892    422.64334     23.54993    22.202158    6.7159307    429.35927   -22235.602 
  499200   -93436.355   -80753.813    308.02362    20721    220991.19   -9.6532031    -93.92814    109.54923   -44.580705    422.62358    23.550917    22.203089    6.7258104    429.34939   -22252.254 
  499300   -93487.961   -80761.747    309.08428    20721    220894.83    27.645551    90.411713   -50.386876    42.911817    422.45286     23.55054    22.202733    6.8111714    429.26403   -22249.523 
  499400   -93469.981   -80750.352    308.92434    20721    221213.14   -34.338496   -193.87926   -20.660279    111.52405    422.73283    23.559696    22.211365    6.6711862    429.40401   -22248.739 
  499500   -93601.543   -80800.991    310.88974    20721    220922.62   -91.002066   -107.65744   -295.50323    130.15448    422.29836    23.556329    22.208191    6.8884184    429.18678   -22208.738 
  499600   -93536.891    -80782.83    309.76059    20721    221406.02   -25.187535   -81.984078   -251.24208    257.66355     422.5836    23.574127     22.22497    6.7458006     429.3294   -22213.546 
  499700   -93316.035   -80730.121    305.67677    20721    221297.09     87.39622   -63.276443   0.79422313    324.67088    422.38766    23.573793    22.224655    6.8437701    429.23143   -22275.569 
  499800   -93554.426   -80779.937    310.25674    20721    221320.29   -34.413837   -128.02435   -142.36979    167.15262    422.28435    23.577912    22.228538    6.8954256    429.17977   -22225.131 
  499900   -93530.089   -80735.589    310.74275    20721    221415.51    47.460965    237.26452   -35.361458   -59.520165    422.27371     23.58328      22.2336    6.9007434    429.17446   -22267.693 
  500000   -93524.394    -80727.23    310.80746    20721    221428.01    -66.81798   -143.72671    44.581159   -101.30839    422.36785    23.581318    22.231749    6.8536759    429.22152    -22272.64 
Loop time of 72232.5 on 32 procs for 500000 steps with 20721 atoms

Performance: 1.196 ns/day, 20.065 hours/ns, 6.922 timesteps/s
97.2% CPU use with 32 MPI tasks x no OpenMP threads

MPI task timing breakdown:
Section |  min time  |  avg time  |  max time  |%varavg| %total
---------------------------------------------------------------
Pair    | 12936      | 14289      | 16538      | 919.3 | 19.78
Bond    | 0.81819    | 0.91578    | 1.2602     |  10.1 |  0.00
Kspace  | 13420      | 15674      | 17032      | 879.4 | 21.70
Neigh   | 11044      | 13779      | 16153      |1797.3 | 19.08
Comm    | 606.19     | 1989.8     | 5035.6     |2743.3 |  2.75
Output  | 4.1196     | 37.445     | 49.8       | 213.8 |  0.05
Modify  | 24833      | 26378      | 30528      |1002.2 | 36.52
Other   |            | 84.89      |            |       |  0.12

Nlocal:    647.531 ave 697 max 596 min
Histogram: 1 2 3 8 6 0 2 5 1 4
Nghost:    7503.72 ave 7792 max 7190 min
Histogram: 4 1 4 1 6 2 3 5 2 4
Neighs:    237712 ave 271172 max 212374 min
Histogram: 2 8 6 4 0 0 1 6 1 4
FullNghs:  475424 ave 544482 max 421548 min
Histogram: 1 7 8 4 0 0 2 6 1 3

Total # of neighbors = 15213560
Ave neighs/atom = 734.21
Ave special neighs/atom = 2
Neighbor list builds = 500000
Dangerous builds not checked
write_data production.R1
PPPM initialization ...
  extracting TIP4P info from pair style
WARNING: Using 12-bit tables for long-range coulomb (../kspace.cpp:316)
  G vector (1/distance) = 0.345891
  grid = 400 48 48
  stencil order = 5
  estimated absolute RMS force accuracy = 0.000401988
  estimated relative force accuracy = 1.21057e-06
  using double precision FFTs
  3d grid and FFT values/proc = 64980 38400
write_restart restartproduction.R1
PPPM initialization ...
  extracting TIP4P info from pair style
WARNING: Using 12-bit tables for long-range coulomb (../kspace.cpp:316)
  G vector (1/distance) = 0.345891
  grid = 400 48 48
  stencil order = 5
  estimated absolute RMS force accuracy = 0.000401988
  estimated relative force accuracy = 1.21057e-06
  using double precision FFTs
  3d grid and FFT values/proc = 64980 38400
Total wall time: 20:03:53
