LAMMPS (30 Jul 2016)
# Sets up LAMMPS simulation for transient melting of ice: TIP4P/Ice
# Ensure cold thermostats do not move
# Thinbox: 16x1x1
# Defects
# Order param l=2

#### setting MD parameters ####
units real
boundary p p p
atom_style full

# read ice box in restart file
### read the equilibrated NPT restart file

read_restart restart.state
  orthogonal box = (0.355971 0.0192087 0.0181094) to (435.719 23.512 22.1664)
  32 by 1 by 1 MPI processor grid
  20736 atoms
  13824 bonds
  6912 angles
  2 = max # of 1-2 neighbors
  1 = max # of 1-3 neighbors
  1 = max # of 1-4 neighbors
  2 = max # of special neighbors


#### force field definition ####
pair_style      lj/cut/tip4p/long 2 1 1 1 0.1577 10.0
pair_modify	tail yes

kspace_style	pppm/tip4p 1.0e-6

bond_style	harmonic
angle_style	harmonic
dihedral_style	none
improper_style	none

bond_coeff	1 450.0 0.9572
angle_coeff	1 55.0 104.52


# reset pair coeff
pair_coeff	* * 0.0 0.0

#OO
pair_coeff	2 2 0.21085 3.1668
#OH
pair_coeff	* 1 0.0000 0.0000

neighbor        2.0 bin
neigh_modify    every 1 delay 1 check no

timestep	2.0
fix		constraints all shake 0.000001 20 0 b 1 a 1
  0 = # of size 2 clusters
  0 = # of size 3 clusters
  0 = # of size 4 clusters
  6912 = # of frozen angles

group water type 1 2
20736 atoms in group water

#*********** SIMULATION PARAMETER TO ADJUST ****************
#Box dimensions
variable lx equal lx
variable ly equal ly
variable lz equal lz

### Temperature of the hot and cold regions ####
variable thi equal 375
variable tlo equal 215
variable runpressure equal 0.986923


# Configuration equilibrated in density and temperature

# Define dx here

variable lx equal lx
variable ly equal ly
variable lz equal lz

variable xlo equal xlo
variable xhi equal xhi

variable boxcentre equal ${xlo}+(${xhi}-${xlo})/2
variable boxcentre equal 0.355971150642233+(${xhi}-${xlo})/2
variable boxcentre equal 0.355971150642233+(435.719228849369-${xlo})/2
variable boxcentre equal 0.355971150642233+(435.719228849369-0.355971150642233)/2

variable dx equal 2.0

#### ADD IN DEFECTS AT THE CENTRE OF THE HOT THERMOSTAT #####
variable y1 equal ${ly}/2.0
variable y1 equal 23.4927826429016/2.0
variable z1 equal ${lz}/2.0
variable z1 equal 22.1482812836341/2.0

region kill1 sphere ${boxcentre} ${y1} ${z1} 3
region kill1 sphere 218.037600000006 ${y1} ${z1} 3
region kill1 sphere 218.037600000006 11.7463913214508 ${z1} 3
region kill1 sphere 218.037600000006 11.7463913214508 11.074140641817 3
delete_atoms region kill1 compress no bond yes mol yes
Deleted 12 atoms, new total = 20724
Deleted 8 bonds, new total = 13816
Deleted 4 angles, new total = 6908
############


variable thip equal ${thi}*2.0/3.0
variable thip equal 375*2.0/3.0
variable tlop equal ${tlo}*2.0/3.0
variable tlop equal 215*2.0/3.0
variable hbl equal ${boxcentre}-${dx}
variable hbl equal 218.037600000006-${dx}
variable hbl equal 218.037600000006-2
variable hbh equal ${boxcentre}+${dx}
variable hbh equal 218.037600000006+${dx}
variable hbh equal 218.037600000006+2

#***************************************************
## EQUILIBRATION PERIOD - to reach the steady state ###
#run 0

#reset the timestep to start your production run
reset_timestep 0

# define a group to perform averages
#group s1 type 1
###*** SYSTEM THERMOSTATTING: HOT and COLD regions ***###

fix NVE all nve
fix PRESS all press/berendsen aniso ${runpressure} ${runpressure} 500000 couple yz
fix PRESS all press/berendsen aniso 0.986923 ${runpressure} 500000 couple yz
fix PRESS all press/berendsen aniso 0.986923 0.986923 500000 couple yz


### Apply THERMOSTATS ###

#set up the "hot region" in the middle of the box
region hot block ${hbl} ${hbh} 0 ${ly} 0 ${lz} units box
region hot block 216.037600000006 ${hbh} 0 ${ly} 0 ${lz} units box
region hot block 216.037600000006 220.037600000006 0 ${ly} 0 ${lz} units box
region hot block 216.037600000006 220.037600000006 0 23.4927826429016 0 ${lz} units box
region hot block 216.037600000006 220.037600000006 0 23.4927826429016 0 22.1482812836341 units box


#set up the "cold region" at the left end of the box
#region cold block ${cbl} ${cbh} 0 ${ly} 0 ${lz} units box

#set up the "cold region" at the right end of the box
#region cold2 block ${h2bl} ${xhi} 0 ${ly} 0 ${lz} units box


#Cold regions  unification
#region cold union 2 cold1 cold2 units box

#Create group of cold molecules
####group cool_ice region cold
####group cool_ice include molecule

####compute cold_temp cool_ice temp
####fix cold_rescale water temp/rescale 1 ${tlo} ${tlo} 0.0001 1.0
####fix_modify cold_rescale temp cold_temp

#this calculates the temperature using only the atoms in the "hot region"
#compute hot_temp all temp/region hot

# calculate the temperature using only WATER in the "hot region"
compute hot_temp water temp/region hot

#this calculates the temperature using only WATER in the "cold region"
#compute cold_temp water temp/region cold


#set up a basic velocity rescale for the hot region WATER with thip
fix hot_rescale water temp/rescale 1 ${thip} ${thip} 1.0 1.0
fix hot_rescale water temp/rescale 1 250 ${thip} 1.0 1.0
fix hot_rescale water temp/rescale 1 250 250 1.0 1.0
#change the thermostat to only act on the "hot region"
#this is done by passing it the "hot temp" compute that we defined above
fix_modify hot_rescale temp hot_temp

#set up a basic velocity rescale for the cold region
#fix cold_rescale water temp/rescale 1 ${tlop} ${tlop} 1.0 1.0
#change the thermostat to only act on the "cold region"
#this is done by passing it the "cold temp" compute that we defined above
#fix_modify cold_rescale temp cold_temp

### Ensure MOMENTUM CONSERVATION ###

#ensure that linear momentum is conserved despite the "thermostatting" by velocity rescaling
fix cons_mom all momentum 1 linear 1 1 1


thermo 100
thermo_style custom step pe etotal temp atoms vol press pxx pyy pzz lx ly lz xlo xhi  f_hot_rescale

group ox type 2
6908 atoms in group ox
group hy type 1
13816 atoms in group hy
compute KE all ke/atom
variable TEMP atom c_KE*4186.8/(1.3806488*6.02214129)

compute cc1 all chunk/atom bin/1d x center 2 units box
#fix TPROFILE all ave/chunk 1 500 500 cc1 v_TEMP density/number file temp.dat
fix TPROFILEox ox ave/chunk 1 500 500 cc1 v_TEMP density/number file temp-ox.dat
fix TPROFILEhy hy ave/chunk 1 500 500 cc1 v_TEMP density/number file temp-hy.dat

compute orderparam ox orientorder/atom degrees 1 2 nnn 4 cutoff 3.5
compute cc2 ox chunk/atom bin/1d x center 2 units box
#fix ORDERPARAM all ave/chunk 1 500 500 cc2 c_orderparam[1] file order-param.dat
fix ORDERPARAM all ave/chunk 1 500 500 cc2 c_orderparam[1] file order-param.dat

restart 50000 config.restart

run 500000
PPPM initialization ...
  extracting TIP4P info from pair style
WARNING: Using 12-bit tables for long-range coulomb (../kspace.cpp:316)
  G vector (1/distance) = 0.345579
  grid = 405 48 48
  stencil order = 5
  estimated absolute RMS force accuracy = 0.000406373
  estimated relative force accuracy = 1.22378e-06
  using double precision FFTs
  3d grid and FFT values/proc = 67260 38880
Neighbor list info ...
  2 neighbor list requests
  update every 1 steps, delay 1 steps, check no
  max neighbors/atom: 2000, page size: 100000
  master list distance cutoff = 12.3154
  ghost atom cutoff = 12.3154
  binsize = 6.1577 -> bins = 71 4 4
Memory usage per processor = 12.7844 Mbytes
Step PotEng TotEng Temp Atoms Volume Press Pxx Pyy Pzz Lx Ly Lz Xlo Xhi hot_resc 
       0   -103788.58   -95018.088     212.9799    20724    226530.28   -170.33022   -33.477317    -245.9177   -231.59563    435.36326    23.492783    22.148281   0.35597115    435.71923            0 
     100   -103678.34   -94747.052    216.88462    20724    226213.23   -43.260534    -239.8164    227.09794   -117.06314    434.94551    23.487608    22.143403   0.56484681    435.51035    -280.6277 
     200   -103669.63   -94741.389    216.81069    20724    226295.16   -88.026078   -63.996588    -317.0505    116.96886    435.26851    23.483143    22.139193   0.40334552    435.67185   -282.80497 
     300    -103683.1   -94710.991    217.87608    20724    226089.91   0.92764392    21.251528    115.96031   -134.42891    434.96971    23.480552     22.13675   0.55274576    435.52245   -325.58772 
     400   -103667.63   -94684.083    218.15386    20724    226324.22   -29.287538    13.015523     150.1008   -250.97894    435.10304    23.489116    22.144824   0.48608141    435.58912   -343.91488 
     500   -103559.38   -94621.153    217.05313    20724    226154.24    61.171048    93.597404    219.08654    -129.1708    435.17217    23.478428    22.134748   0.45151442    435.62369    -416.9618 
     600    -103561.6   -94567.082    218.42008    20724    226202.66    23.444645    111.68594   -126.07591    84.723907    435.03104     23.48475    22.140708   0.52207842    435.55312   -468.28246 
     700   -103532.39   -94482.013    219.77661    20724    226362.92   -32.477605   -86.536679   -32.517118    21.620982    435.18958    23.488788    22.144515   0.44280956    435.63239   -546.05346 
     800   -103485.79   -94474.523    218.82681    20724     226425.7    40.390389   -9.5088726    -92.43243    223.11247    435.19607     23.49187    22.147421   0.43956705    435.63563   -555.87563 
     900   -103565.39   -94458.996      221.137    20724    226456.03   -25.745617    41.655231   -236.63742    117.74534    435.19746    23.493406    22.148869   0.43886919    435.63633   -568.47381 
    1000   -103501.77   -94467.557    219.38403    20724    226522.48    39.787912   -141.86561    167.04918    94.180166    435.35216    23.492677    22.148182   0.36151926    435.71368   -560.40413 
    1100   -103419.45   -94389.451    219.28178    20724    226550.91   -8.2491808   -118.10504    270.34431   -176.98681    435.33135    23.494713    22.150101   0.37192437    435.70328   -637.69262 
    1200   -103495.62   -94385.132    221.23625    20724     226479.9   -47.446371   -85.890791    179.45721   -235.90553    435.18798      23.4949    22.150277   0.44360899    435.63159     -643.519 
    1300   -103499.14   -94405.526    220.82658    20724    226479.94    -3.691662   -8.1108449    110.25019   -113.21433     435.3413    23.490764    22.146378   0.36695145    435.70825    -626.6309 
    1400   -103396.94   -94350.605    219.67855    20724    226438.88   -72.787957    54.422166   -197.38414   -75.401898    434.98221    23.498328     22.15351   0.54649712     435.5287   -678.21804 
    1500   -103434.06   -94339.685    220.84505    20724    226458.55    55.651212    191.27921    198.76793    -223.0935    435.19602    23.493575    22.149029   0.43958921    435.63561   -698.08178 
    1600    -103453.5   -94299.946    222.28213    20724    226414.36   -69.217144    76.732969    1.5923233   -285.97672    435.17902    23.491742      22.1473   0.44808889    435.62711   -732.47875 
    1700   -103424.08   -94268.348    222.33501    20724    226470.58   -44.259056   -77.238463   -126.48971    70.951009    435.10661    23.496613    22.151893    0.4842945    435.59091   -766.07516 
    1800   -103376.24    -94254.24    221.51584    20724     226413.8    53.680672    134.06186   -167.18638    194.16654    434.96985    23.497361    22.152597   0.55267628    435.52252   -785.41726 
    1900   -103265.81   -94176.993    220.71017    20724    226347.17    41.145418    117.48902    94.167003   -88.219765    435.08962    23.490669    22.146289    0.4927901    435.58241   -863.85886 
    2000   -103299.87   -94159.933    221.95153    20724    226447.09    21.006008   -71.721483    118.50553    16.233976    435.08121    23.496081     22.15139   0.49699506     435.5782   -878.63776 
    2100   -103370.29   -94135.677    224.25054    20724    226445.78   -41.049013    29.677332    65.392403   -218.21677    435.18117    23.493314    22.148782   0.44701423    435.62819   -900.53649 
    2200   -103361.82   -94178.211    223.01204    20724    226286.62    41.850701    62.300148    91.689951   -28.437997    435.16993     23.48536    22.141283   0.45263509    435.62256   -868.14768 
    2300   -103315.77   -94143.314    222.74124    20724    226464.14    -9.135522    39.304236    44.652017   -111.36282    435.11844     23.49596    22.151277   0.47838027    435.59682    -897.1585 
    2400   -103276.14   -94084.395    223.20963    20724    226407.93   -18.224073   -56.988221   -50.653295    52.969295     435.0977    23.493604    22.149055   0.48875207    435.58645   -956.76514 
    2500   -103251.25   -94069.273     222.9724    20724    226463.96    24.483214    81.388125   -144.03585    136.09737    435.04452    23.497946     22.15315   0.51534074    435.55986    -971.3553 
    2600   -103284.56   -94043.412     224.4093    20724    226391.32   -103.91973     -144.901   -131.13742   -35.720765    435.13546    23.491723    22.147282   0.46987108    435.60533   -995.75908 
    2700   -103300.63   -94040.177    224.87815    20724    226510.65    17.246358    136.60696   -24.817505   -60.050385    435.33703    23.492472    22.147989   0.36908316    435.70612   -1003.4574 
    2800   -103237.88   -94037.784    223.41242    20724    226602.56   -24.248453    102.87344   -81.369167   -94.249634    435.06682    23.504534     22.15936   0.50419156    435.57101   -1003.9272 
    2900      -103237    -94007.71    224.12132    20724    226386.79    29.766004    35.587845    162.75503   -109.04487    435.17309    23.490472    22.146103   0.45105576    435.62414   -1042.2975 
    3000   -103254.16   -94018.741    224.27008    20724    226370.71   -7.5238714    63.452931    30.938202   -116.96275    435.20405    23.488802    22.144529   0.43557707    435.63962   -1031.1344 
    3100   -103177.22   -93957.986    223.87705    20724    226527.45    1.7360011     44.95178     12.60558   -52.349356    435.46273    23.489952    22.145613   0.30623748    435.76896   -1088.7128 
    3200   -103223.33   -93940.196    225.42886    20724    226633.26    41.743936    50.816865    10.924344      63.4906    435.44761    23.495846    22.151169   0.31379566     435.7614   -1107.5249 
    3300   -103181.68   -93938.914    224.44862    20724    226585.47   -31.365802    163.22104   -90.864147    -166.4543    435.23628    23.499071     22.15421   0.41946199    435.65574   -1107.3782 
    3400   -103219.75   -93931.813     225.5454    20724    226633.86    1.8290929     -84.8714    127.64257   -37.283893    435.38931     23.49745    22.152681   0.34294516    435.73225   -1116.0262 
    3500   -103181.47   -93895.083    225.50783    20724    226645.81    37.129946    113.26296    44.031234   -45.904355    435.42507    23.497104    22.152356   0.32506425    435.75014    -1155.092 
    3600   -103174.23   -93827.932    226.96255    20724    226572.74   -14.015874    5.5879477    56.632891   -104.26846    435.34708     23.49542    22.150768   0.36405762    435.71114   -1220.3428 
    3700   -103128.62   -93839.633    225.57096    20724    226687.93   -50.648614   -92.243986   -183.13603    123.43418    435.36777    23.500834    22.155872   0.35371684    435.72148   -1204.5985 
    3800   -103185.45   -93840.056     226.9407    20724    226608.24    8.2294663    47.578481   -245.95107    223.06099     435.2854    23.498926    22.154073   0.39489993     435.6803   -1211.0329 
    3900   -103106.57   -93847.784    224.83756    20724    226583.92    24.744584   -8.1666633    194.15189   -111.75147    435.43613    23.493598     22.14905   0.31953694    435.75566   -1204.0293 
    4000   -103196.53     -93793.3    228.34517    20724    226768.09    33.688116   -36.772079    252.50827   -114.67185     435.5161    23.500986    22.156015   0.27954967    435.79565   -1255.6856 
    4100   -103117.97   -93772.452    226.94365    20724    226579.25   -2.5227621   -67.281967    56.003821    3.7098591    435.23786    23.498706    22.153866   0.41867087    435.65653   -1281.0789 
    4200   -103045.79   -93750.271    225.72968    20724    226617.03    73.932779    30.699012     163.1294    27.969927    435.32739    23.498248    22.153434   0.37390603    435.70129   -1304.5232 
    4300   -103106.19   -93712.663    228.10967    20724    226684.45   -53.653525   -103.14574   -61.252402    3.4375644    435.50953    23.496829    22.152096   0.28283531    435.79236   -1338.7402 
    4400   -103050.81    -93709.24    226.84786    20724    226659.93   -26.281185   -155.19168    157.80872     -81.4606    435.39819    23.498562     22.15373   0.33850505    435.73669   -1344.0826 
    4500   -103038.22    -93699.82    226.77089    20724    226521.78   -32.319262   -41.901381    79.468279   -134.52469     435.3092      23.4938    22.149241   0.38299842     435.6922   -1355.4741 
    4600   -103044.16   -93683.967    227.30012    20724    226857.57       -32.86   -108.49871   -59.700067     69.61878    435.50301    23.505975    22.160719   0.28609698     435.7891    -1365.526 
    4700   -103038.93   -93700.694    226.76699    20724       226572     11.10078     162.4552   -61.351504   -67.801357    435.42011    23.493412    22.148875   0.32754504    435.74765   -1358.7051 
    4800   -103108.94   -93673.392    229.12992    20724    226838.03   -7.4654233   -27.345229   -1.8646195    6.8135784    435.67618    23.500291     22.15536   0.19950911    435.87569   -1379.7584 
    4900   -103037.22   -93679.434    227.24168    20724    226698.43   -53.885661   -109.15817   -18.983547   -33.515267    435.35738    23.501659     22.15665   0.35891178    435.71629   -1376.5578 
    5000   -103068.64   -93614.234    229.58783    20724     226858.4   -63.161186   -89.154921   -408.67679    308.34815    435.40725    23.508603    22.163196   0.33397643    435.74122   -1436.7442 
    5100   -103002.83   -93626.857    227.68334    20724    226601.82   -25.571609   -112.93494   -67.996857    104.21697     435.5101     23.49253    22.148043   0.28255093    435.79265   -1432.1595 
    5200   -103029.29   -93605.948     228.8336    20724    226853.31    -90.45366   -60.430711   -287.98363    77.053356    435.64543    23.501912    22.156888   0.21488351    435.86032   -1443.5915 
    5300   -103001.43   -93607.804    228.11197    20724    226686.53    43.766794    -6.186143     31.98077    105.50575    435.41728    23.499426    22.154544   0.32896066    435.74624   -1456.2174 
    5400   -102994.61    -93600.35    228.12732    20724    226549.41    23.506406    14.046719    119.98268   -63.510177    435.06025    23.501955    22.156928   0.50747368    435.56773   -1466.9371 
    5500   -103134.29   -93550.518    232.72941    20724    226734.36   -56.044571    9.4904718   -51.425333   -126.19885    435.48247    23.500145    22.155222   0.29636268    435.77884   -1510.1777 
    5600   -102951.78   -93571.891    227.77842    20724     226481.9     36.42619   -117.90073    160.81953    66.359766    435.14545    23.496152    22.151458   0.46487668    435.61032   -1499.1816 
    5700   -102928.57   -93547.107    227.81659    20724    226757.35    41.464144    69.145607    60.153583   -4.9067586    435.45003    23.502212    22.157171   0.31258383    435.76262   -1518.4774 
    5800   -103002.19   -93546.626    229.61607    20724    226552.48    -17.34648   -110.71751    153.20537     -94.5273    435.38986    23.493216     22.14869   0.34267092    435.73253   -1522.4047 
    5900   -102991.33   -93522.406    229.94036    20724    226523.13    27.078858    25.178668    14.493523    41.564385    435.14886    23.498198    22.153387   0.46316839    435.61203   -1551.3139 
    6000   -102921.34   -93496.809    228.86251    20724    226416.13   -31.617095   -9.0943026   -236.28168     150.5247     435.2114     23.49096    22.146563    0.4319021     435.6433   -1577.7295 
    6100    -102962.6   -93540.907    228.79364    20724    226555.26   -54.663398    12.740573    166.70806   -343.43883    435.50042    23.490378    22.146014   0.28739048    435.78781   -1529.0539 
    6200   -102940.46   -93522.361    228.70626    20724    226633.58    9.7833018    137.61398    61.828897   -170.09297    435.43132    23.496302    22.151599   0.32193961    435.75326    -1548.529 
    6300   -102932.86   -93527.004    228.40903    20724    226496.67      43.5465    54.971431   -308.22174    383.88981    435.29652     23.49284    22.148336   0.38934072    435.68586   -1552.3098 
    6400   -102953.33   -93500.116     229.5589    20724    226635.53   -54.168404   -301.31693   -85.121608    223.93333    435.60963    23.491593     22.14716   0.23278483    435.84242    -1571.196 
    6500    -102922.2   -93462.104    229.72619    20724    226537.88    37.033289   -61.147432    107.62259    64.624707     435.3066    23.494705    22.150094   0.38429752     435.6909   -1617.2094 
    6600   -103039.65    -93465.75    232.48977    20724    226668.01   -70.570731   -136.07999   -169.85561    94.223401      435.374    23.499633     22.15474    0.3505976     435.7246   -1607.1231 
    6700   -102910.69   -93493.148    228.69267    20724    226445.49    64.469752    147.77741    -73.16994    118.80178    435.27301     23.49082    22.146431   0.40109439    435.67411   -1591.8038 
    6800   -102963.58   -93408.901    232.02301    20724    226681.06   -76.432317   -80.450301   -96.726742    -52.11991    435.35074    23.500937    22.155969   0.36222764    435.71297   -1664.6127 
    6900   -102858.71   -93403.898    229.59768    20724    226709.52    23.086597    130.43799   -128.40017    67.221973    435.25558    23.504982    22.159782   0.40980891    435.66539   -1675.3976 
    7000   -102874.67   -93406.364    229.92541    20724    226520.27   -58.336642   -126.21897     262.9241   -311.71506    435.46608     23.48949    22.145177   0.30455984    435.77064   -1675.7025 
    7100   -102768.79   -93369.947    228.23855    20724    226636.83    79.196602    212.43764    72.475108   -47.322939    435.58914    23.492213    22.147744   0.24302851    435.83217     -1713.22 
    7200   -102869.13   -93366.172    230.76689    20724    226618.43   -62.175573   -180.15112    39.541639   -45.917233    435.29035    23.499321    22.154445   0.39242504    435.68277   -1714.2688 
    7300   -102853.32   -93375.151    230.16505    20724    226706.56   -1.2823747    48.928552   -89.694819    36.919143    435.46539    23.499165    22.154299   0.30490692    435.77029   -1705.5285 
    7400    -102884.9   -93335.752    231.88866    20724    226658.11    7.5236255    98.399602   -291.18283     215.3541    435.39821    23.498467     22.15364   0.33849664     435.7367   -1749.6924 
    7500   -102911.85   -93315.942    233.02403    20724    226676.86   -109.28828   -206.05911   -19.463507   -102.34221    435.34472    23.500882    22.155917   0.36523933    435.70996   -1764.2234 
    7600   -102819.43   -93341.849    230.15083    20724    226774.36    140.33203    90.703112    342.21706   -11.924073    435.29211    23.507357    22.162021   0.39154646    435.68365   -1746.8054 
    7700   -102821.52   -93298.536    231.25323    20724    226762.05   -51.317488   -58.480072   -79.348625   -16.123767    435.45483    23.502326    22.157278   0.31018343    435.76502   -1782.4018 
    7800   -102846.24   -93306.223    231.66679    20724    226700.46    23.993543    4.9124618   -250.48375    317.55191    435.39523    23.500742    22.155785   0.33998353    435.73522   -1782.2426 
    7900   -102741.37    -93259.09    230.26483    20724    226807.06    27.955413   -124.46876    2.5996986     205.7353    435.33258    23.507958    22.162589   0.37130874    435.70389   -1826.1138 
    8000   -102748.83   -93254.423    230.55921    20724    226812.71    -19.11635    7.9610039   -9.3833267   -55.926727    435.50374    23.503631    22.158509   0.28572832    435.78947   -1828.8044 
    8100    -102716.4   -93262.321     229.5799    20724    226754.19    42.560552     23.82074     133.7915   -29.930584    435.33252     23.50522    22.160007   0.37134153    435.70386    -1827.475 
    8200   -102752.36   -93260.562    230.49599    20724    226878.73    11.699935   -124.41907    231.40916   -71.890283    435.35521    23.511061    22.165514   0.35999681     435.7152   -1824.7698 
    8300   -102762.93   -93238.858    231.27964    20724    226831.64    46.245871    145.92698    163.31994   -170.50931     435.4412      23.5063    22.161025   0.31699838     435.7582   -1850.6308 
    8400   -102784.11   -93214.476    232.38601    20724    226955.86   -14.551323    -12.69095   -185.66216    154.69914    435.57996     23.50899    22.163561   0.24762112    435.82758   -1870.0592 
    8500   -102743.88   -93195.142    231.87867    20724    226931.45    34.497221    19.994606   -28.594311    112.09137    435.32623    23.514575    22.168827   0.37448403    435.70072   -1892.0353 
    8600   -102788.05   -93169.621    233.57101    20724    226812.31   -45.961383   -21.955763   -204.29232     88.36393     435.3342    23.508187    22.162804   0.37050122     435.7047   -1917.0117 
    8700   -102763.76    -93132.03    233.89394    20724    226744.91    11.207341   -24.464864    67.039147   -8.9522618    435.34995    23.504269     22.15911   0.36262745    435.71257   -1961.4949 
    8800   -102677.85   -93092.583    232.76561    20724    226912.06    81.277105    97.023806    11.260102    135.54741    435.25317    23.515544     22.16974   0.41101311    435.66419   -1997.7561 
    8900    -102676.8   -93111.047    232.29189    20724    226746.05   -35.873466   -275.65497    74.129926    93.904644    435.24017    23.507292     22.16196   0.41751372    435.65769   -1980.6792 
    9000   -102739.05   -93088.245    234.35732    20724    226861.38   -15.557423   -83.909938    232.93597    -195.6983    435.72068      23.5003    22.155369    0.1772589    435.89794   -2002.9932 
    9100   -102623.63   -93124.285    230.67913    20724    226715.11    49.243169   -131.82194    165.61601    113.93544     435.2528    23.505347    22.160127   0.41120181      435.664   -1974.4419 
    9200   -102706.31   -93137.636    232.36272    20724     226833.8   -20.014004   -43.991431  -0.53406975    -15.51651    435.45079    23.506153    22.160886   0.31220338      435.763   -1957.1513 
    9300    -102812.4   -93119.581    235.37755    20724    226973.98   -54.260272   -52.489316   -193.12388    82.832378    435.58451    23.509806     22.16433   0.24534386    435.82986   -1972.0303 
    9400   -102790.31     -93133.4     234.5055    20724    226693.06   -50.494914    2.7840063    100.23826   -254.50701    435.37674    23.500858    22.155894   0.34922819    435.72597   -1965.5768 
    9500   -102642.73   -93105.271    231.60467    20724    226817.72    1.2457271     129.3384    133.45738    -259.0586    435.33776    23.508371    22.162977   0.36871925    435.70648   -1993.9865 
    9600   -102757.93    -93121.64    234.00472    20724    226801.45   -6.0385904    53.051341    142.68892   -213.85603     435.3867    23.506207    22.160937   0.34425141    435.73095   -1977.9143 
    9700   -102722.55   -93103.812    233.57858    20724    226636.66   -60.855216   -42.988332   -94.279993   -45.297322     435.3341    23.499085    22.154223   0.37055187    435.70465    -1999.895 
    9800   -102667.55   -93071.876    233.01841    20724    226858.43    25.976163    128.57475   -120.21608     69.56982    435.49266    23.506299    22.161024   0.29126836    435.78393   -2030.6733 
    9900   -102642.46    -93050.42    232.93019    20724    227042.17    101.68854    310.86282   -80.551309    74.754118    435.52366    23.514979    22.169208   0.27576841    435.79943   -2050.8427 
   10000   -102660.31   -93048.915    233.40028    20724    226787.58   -90.274673   -108.82184   -53.086397   -108.91578     435.5595    23.500825    22.155863   0.25785187    435.81735   -2052.3757 
   10100   -102626.18   -93048.708    232.57643    20724    226844.54    25.156459   -100.24833    74.493468    101.22424    435.56319    23.503676    22.158552   0.25600483     435.8192   -2056.6797 
   10200   -102617.87    -93042.99    232.51351    20724    226813.23   -6.6179035   -53.213636   -54.330824     87.69075    435.43981    23.505384    22.160161   0.31769675     435.7575    -2063.068 
   10300   -102720.92   -93021.956    235.52676    20724    226932.42    70.676346     102.6667    323.05441   -213.69207    435.48158    23.510431     22.16492   0.29680769    435.77839   -2087.8069 
   10400   -102571.57   -92995.488    232.54265    20724    226696.94   -4.9204194   -113.79227   -337.13271    436.16372    435.23941    23.504766    22.159579   0.41789312    435.65731   -2116.4202 
   10500   -102644.14   -93004.527    234.08555    20724    226870.82   -14.465753   -85.737349    51.929265   -9.5891747    435.48608    23.507118    22.161797    0.2945589    435.78064   -2103.4731 
   10600   -102615.14   -92996.469    233.57693    20724    226678.09    43.879765    55.080817    29.189443    47.369036    435.24141    23.503735    22.158607   0.41689526     435.6583   -2121.9686 
   10700   -102650.65   -92991.763    234.55359    20724    226834.17   -63.992535   -102.61552   -72.603513    -16.75857    435.33696    23.509245    22.163802   0.36911799    435.70608   -2117.1177 
   10800   -102578.74   -93010.758    232.34588    20724    226440.62   -14.789619   -172.05572   -52.841201    180.52806    435.14987    23.493891    22.149326   0.46266635    435.61253   -2112.2559 
   10900   -102629.39   -92980.678    234.30642    20724    226867.86    27.446975   -39.702315    95.074289    26.968951    435.19144    23.514921    22.169153   0.44187919    435.63332   -2134.2092 
   11000   -102638.85   -92994.806    234.19301    20724    226795.62    40.644269    145.33733    2.7642589   -26.168777    435.42605    23.504842    22.159651   0.32457647    435.75062   -2124.1923 
   11100   -102581.29    -92958.41    233.67914    20724    226704.83    27.078492   -53.369875    8.7097332    125.89562    435.18157    23.506737    22.161437   0.44681562    435.62838   -2163.0023 
   11200   -102598.47   -92963.116      233.982    20724    226888.84    120.40913    250.31463   -28.110558    139.02332    435.45845    23.508798     22.16338   0.30837404    435.76683     -2159.47 
   11300   -102475.23   -92876.846    233.08424    20724    226882.32    36.389254   -44.822582   -109.43898    263.42932    435.33252     23.51186    22.166267   0.37133822    435.70386   -2241.3128 
   11400   -102501.25   -92908.416    232.94944    20724    226748.52    3.9431958    -113.0051    112.40132    12.433368     435.2319    23.507643    22.162291   0.42165209    435.65355   -2213.7867 
   11500   -102540.96   -92925.541    233.49799    20724    226811.73   -8.8543179    105.57463   -263.72758       131.59     435.2552     23.51029    22.164787   0.40999754     435.6652   -2195.0073 
   11600   -102591.33    -92923.62    234.76762    20724    226720.69   -4.4391611   -26.035095   -2.0268551    14.744467     435.4486     23.50035    22.155416   0.31329919     435.7619   -2201.6632 
   11700   -102547.15    -92883.09    234.67921    20724    226668.71    35.535456    76.676175   -13.670692    43.600886    435.38531    23.499364    22.154486   0.34494562    435.73025   -2246.6522 
   11800   -102497.24   -92852.363    234.21337    20724     226736.3   -41.089119   -21.827333   -168.51959    67.079567    435.30853     23.50494    22.159743   0.38333259    435.69187   -2272.2894 
   11900   -102547.05   -92819.971    236.20955    20724    226858.61    10.222848    26.558839   -219.66062    223.77032    435.33139    23.510662    22.165137   0.37190285     435.7033   -2305.6742 
   12000   -102380.61   -92790.793    232.87623    20724    226680.12    32.817131    67.775323   -82.872908    113.54898     435.5437    23.495682    22.151015   0.26574903    435.80945   -2338.9842 
   12100   -102483.06    -92851.99    233.87795    20724    226613.12    67.465321    140.86219    156.41598   -94.882198     435.4696    23.494209    22.149626   0.30280166     435.7724   -2284.1374 
   12200   -102488.03   -92822.621    234.71197    20724    226882.59   -11.883978    14.321348   -229.96954    179.99626    435.61211    23.504328    22.159165   0.23154552    435.84365   -2301.7341 
   12300    -102528.5   -92850.525    235.01703    20724    226603.79   -6.4673023   -103.71965   -104.25944    188.57718    435.19538    23.501126    22.156147   0.43990944    435.63529   -2284.3064 
   12400   -102556.21   -92843.172    235.86841    20724     226719.8    37.922306   -4.2863177    180.09288   -62.039645    435.36299    23.502615    22.157551   0.35610404     435.7191   -2290.3135 
   12500   -102376.53   -92788.581    232.83073    20724    226515.76   -2.2908977   -10.345236    315.74421   -312.27167    435.23102    23.495598    22.150936   0.42208963    435.65311   -2349.4343 
   12600   -102380.21   -92791.516    232.84904    20724    226634.05    60.294754    134.38282   -17.741689     64.24313    435.23372    23.501659     22.15665   0.42073777    435.65446   -2346.7646 
   12700   -102440.32    -92800.79    234.08343    20724    226548.32   -29.429119    6.3263136   -174.66696    80.053292    435.05013    23.502171    22.157132   0.51253467    435.56267   -2335.7284 
   12800   -102433.96   -92788.523    234.22688    20724    226635.99    7.0253563    45.595654     79.79412   -104.31371    435.24178    23.501542     22.15654   0.41670758    435.65849   -2349.4528 
   12900   -102568.39   -92807.421    237.03231    20724    226506.72   -39.610359   -188.11134    13.880032    55.400227    435.10562    23.498515    22.153685    0.4847877    435.59041   -2333.8976 
   13000   -102453.71   -92804.194    234.32588    20724    226464.46    4.1470873    125.18649   -105.02273   -7.7224927    434.90932    23.501625    22.156617   0.58293761    435.49226    -2338.914 
   13100   -102413.39   -92757.054    234.49156    20724    226577.44    17.391358     24.16113   -48.129666    76.142611     435.0154     23.50462    22.159441   0.52990154     435.5453   -2384.3512 
   13200    -102433.4   -92759.257    234.92386    20724    226403.32   -54.745494   -134.64199   -162.01622    132.42173    434.84914    23.500078    22.155159   0.61303148    435.46217   -2385.8961 
   13300   -102481.72   -92750.226    236.31672    20724    226705.51   -0.2577556    56.123939   -100.62222    43.725009    435.26872    23.504419    22.159252   0.40323836    435.67196   -2391.6307 
   13400   -102335.64   -92684.548     234.3642    20724    226401.01    95.102844    118.18269    135.53018    31.595663    434.76855    23.502136    22.157099   0.65332712    435.42187    -2471.719 
   13500   -102421.32   -92694.307    236.20772    20724    226717.71    3.8496377   -106.94563   -125.38592    243.88046    435.05726    23.510763    22.165233   0.50897138    435.56623   -2448.3644 
   13600   -102383.13   -92648.726    236.38734    20724    226795.18   -7.3358304   -168.55977   -54.356259    200.90854    435.12299    23.513004    22.167345   0.47610559    435.59909   -2494.1987 
   13700   -102395.14   -92634.474    237.02505    20724    226855.54    19.633327   -90.344612    -66.71396    215.95855    435.12604     23.51605    22.170217   0.47457996    435.60062   -2507.0598 
   13800   -102383.25   -92673.116    235.79789    20724     226828.1    29.343867    18.395914    234.05156   -164.41587    435.37067     23.50802    22.162647   0.35226337    435.72294   -2471.3987 
   13900    -102379.1   -92626.193    236.83669    20724    226918.96   -9.2551157   -35.831677   -189.83231    197.89864    435.39793    23.511992    22.166391   0.33863509    435.73656   -2514.0316 
   14000   -102249.11   -92577.673    234.85833    20724    226776.37     15.24938    43.535206   -48.486421    50.699355    435.05761    23.513795    22.168091   0.50879503     435.5664   -2568.5827 
   14100   -102298.68    -92570.09    236.24602    20724    226860.79   -26.482083   -153.98806    277.03876   -202.49695    435.34073    23.510523    22.165006   0.36723601    435.70796   -2571.9638 
   14200   -102318.52   -92563.317    236.89229    20724       226679   -29.440636    16.165633    52.603836   -157.09138    435.34716    23.500927     22.15596   0.36401972    435.71118   -2585.8388 
   14300   -102296.68   -92558.914    236.46902    20724    226597.78    2.7578409    58.991628    -225.8084    175.09029    435.00559     23.50594    22.160686   0.53480724    435.54039   -2593.8534 
   14400   -102313.51    -92517.38    237.88618    20724    226917.04    71.392643     97.98946  -0.98002774     117.1685    435.47312    23.509863    22.164384   0.30104177    435.77416   -2632.9314 
   14500   -102267.79   -92505.855    237.05577    20724    226780.51   -39.418796   -42.513816   -183.78415    108.04158     435.2719    23.508221    22.162836   0.40164898    435.67355    -2641.284 
   14600   -102336.56   -92539.774    237.90212    20724    226655.83   -52.094987   -148.93464    46.980492   -54.330813     435.2266    23.502981    22.157896   0.42430034     435.6509   -2612.7976 
   14700   -102297.32   -92537.627    237.00153    20724    226722.88   -20.017337   -218.79533     60.09636     98.64696    435.33014    23.503661    22.158537   0.37252839    435.70267    -2614.241 
   14800   -102144.25   -92516.531     233.7966    20724    226522.31    62.918359    193.35986     132.2285   -136.83329    435.04432    23.500979    22.156008   0.51543879    435.55976   -2644.8234 
   14900   -102206.73   -92460.741    236.66857    20724    226582.77   -41.640397     116.9423     -76.7693    -165.0942    435.27319    23.497935    22.153139   0.40100714    435.67419   -2695.4899 
   15000   -102291.58   -92477.855    238.31361    20724    226527.69    40.348513   -43.888382    -245.8062    410.74012    435.04058    23.501359    22.156367   0.51730811    435.55789   -2686.6599 
   15100   -102171.95   -92459.246    235.86035    20724    226506.42    19.328483    26.401883   -65.657432    97.240997    435.01844    23.500854    22.155891   0.52838226    435.54682      -2705.1 
   15200   -102205.27   -92429.306    237.39659    20724    226680.21    38.493995    105.90239    12.111666   -2.5320735    435.23141    23.504115    22.158965    0.4218955     435.6533   -2730.9293 
   15300   -102269.94    -92461.08    238.19549    20724    226346.74    14.861737   -53.917567    134.65589   -36.153113    435.03139    23.492219     22.14775   0.52190705    435.55329   -2709.0676 
   15400   -102132.36   -92419.539    235.86317    20724    226497.91    77.611772     12.30304    167.94506    52.587219    435.15711    23.496667    22.151944   0.45904349    435.61616   -2749.4324 
   15500   -102243.78   -92392.241     239.2319    20724    226643.46   -22.185338    91.916014    265.95293   -424.42496    435.29061    23.500611    22.155662   0.39229587     435.6829    -2769.842 
   15600   -102126.66   -92425.589    235.57795    20724    226656.39   -7.3010386   -147.86113    225.97081   -100.01279    435.18599    23.504107    22.158957   0.44460726    435.63059   -2737.4149 
   15700   -102196.32   -92400.486    237.87902    20724    226596.36   -11.678666    -160.3195   -94.825327    220.10883    435.06276    23.504322     22.15916   0.50622239    435.56898   -2765.0098 
   15800      -102239   -92379.162    239.43323    20724    226686.03   -60.140283     49.29067   -103.75716   -125.95436    435.31709    23.502104    22.157069   0.37905659    435.69614   -2783.8274 
   15900   -102125.59   -92360.873     237.1235    20724    226493.72    19.605197   -27.531361     84.79456    1.5523911    435.02154    23.500111     22.15519   0.52683035    435.54837   -2810.7688 
   16000   -102111.51   -92363.371    236.72088    20724    226587.43    28.748049    158.16121   -13.987967   -57.929095    435.24083     23.49905     22.15419   0.41718415    435.65802   -2807.2652 
   16100   -102134.74    -92358.93    237.39287    20724    226427.98    32.750367      75.6716   -6.1938832    28.773386    435.07049    23.495379    22.150729   0.50235702    435.57284   -2818.7329 
   16200   -102161.16   -92289.374    239.72358    20724    226652.03   -35.708541   -246.34849   -152.16631    291.38918    435.39214    23.498315    22.153497    0.3415275    435.73367   -2877.7752 
   16300   -102043.22   -92328.365    235.91249    20724    226562.81    -4.468219   0.95354821   -107.25724    92.899039     435.2001    23.498873    22.154023   0.43755158    435.63765   -2845.2104 
   16400   -102072.73   -92306.426    237.16185    20724    226405.44    40.900574    33.445871    117.30853   -28.052679    434.87923    23.499375    22.154496   0.59798289    435.47722   -2876.8057 
   16500   -102013.85   -92277.384    236.43732    20724    226572.94   -5.4489465   -144.77028   -56.298868     184.7223    435.22612    23.498696    22.153856   0.42454106    435.65066   -2898.3358 
   16600   -102130.35   -92274.511    239.33625    20724    226630.38   -3.3808781   -2.1237221    143.36547   -151.38438    435.26135    23.500723    22.155767    0.4069269    435.66827   -2902.5711 
   16700   -102076.53   -92224.854    239.23507    20724    226612.77   -68.006865   -124.38065   -157.33908    77.699126    435.45597    23.494558    22.149955    0.3096171    435.76558   -2949.2604 
   16800   -102046.02   -92175.817    239.68502    20724    226502.27    23.133474    80.848418   -182.42562    170.97762    435.10398    23.498328    22.153509   0.48560833    435.58959   -3006.5292 
   16900   -101916.31   -92137.085    237.47583    20724    226470.79    23.837216   -50.456649    249.65338   -127.68508    434.84927    23.503576    22.158457   0.61296516    435.46223   -3048.0128 
   17000   -102052.04   -92176.257    239.82041    20724    226564.87   -3.3703457   -17.580876   -52.079579    59.549418    434.92612     23.50638      22.1611   0.57454045    435.50066   -3007.8711 
   17100   -101924.44   -92202.066    236.09515    20724     226555.6    54.463729    49.771871   -131.94094    245.56025    434.89251    23.506807    22.161503   0.59134581    435.48385   -2983.8331 
   17200   -102071.67   -92164.537    240.58187    20724    226600.45   -8.4285251    -74.92792    12.166003    37.476342    434.99357    23.506403    22.161122   0.54081509    435.53438   -3018.3549 
   17300   -101934.22   -92191.638    236.58592    20724     226603.1   -50.592684    9.4090764    69.623597   -230.81073    435.07087    23.504452    22.159283   0.50216369    435.57304   -2990.1049 
   17400   -101921.69   -92185.154      236.439    20724    226492.38    29.593901    107.16098    64.205814   -82.585093    434.87305    23.504053    22.158907   0.60107319    435.47413   -3003.1028 
   17500   -101875.37   -92160.446    235.91437    20724    226352.74    73.495149    11.328035    41.309822    167.84759    434.88231    23.496557    22.151839   0.59644521    435.47875   -3033.8898 
   17600   -101949.89   -92152.557    237.91558    20724    226419.15    33.561005    49.674756   -78.441291    129.44955    434.86106    23.500577     22.15563   0.60706808    435.46813   -3038.8775 
   17700   -101980.49    -92140.82    238.94353    20724    226290.35    28.941738    60.104685     16.69737     10.02316    434.56348    23.501935     22.15691   0.75586082    435.31934   -3056.0605 
   17800   -101987.07   -92143.807    239.03093    20724    226303.85    70.890356    120.93161    103.45159   -11.712132    434.81802    23.495756    22.151084    0.6285895    435.44661   -3054.8282 
   17900   -101964.24   -92128.387    238.85078    20724    226382.27   -48.614466   -221.60867   -37.391664    113.15693    434.79106    23.500555    22.155609   0.64206856    435.43313   -3063.1564 
   18000   -102038.17   -92151.955    240.07374    20724    226424.19    8.3635398   -76.161712    149.53177   -48.279442    434.47275    23.511338    22.165775   0.80122538    435.27397   -3045.0934 
   18100   -102022.35   -92191.299    238.73417    20724    226147.15   -40.020022     69.74757   -1.1219227   -188.68571     434.3006    23.501607    22.156601   0.88730061     435.1879   -3012.0509 
   18200   -102021.13   -92170.953    239.19873    20724    226180.53   -30.304614    95.608754    85.123402     -271.646    434.54798     23.49665    22.151927   0.76360755    435.31159   -3032.2017 
   18300   -101976.11   -92148.147    238.65917    20724    226219.83   -101.71844   -89.340978   -5.2112676   -210.60308    434.55032    23.498628    22.153793    0.7624403    435.31276   -3051.2385 
   18400   -101924.19   -92147.852    237.40568    20724    226182.27    12.749302   -95.562732    14.219124    119.59151    434.42018    23.500197    22.155271   0.82751087    435.24769   -3056.8276 
   18500   -101973.62   -92127.143     239.1088    20724    226159.65   -46.056026   -72.020224    82.757725   -148.90558    434.36434    23.500532    22.155587   0.85543006    435.21977   -3078.6135 
   18600   -102006.07    -92167.55    238.91563    20724    226085.67    72.842829     39.22852    271.38348   -92.083509     434.0874    23.504182    22.159028   0.99389807     435.0813    -3045.281 
   18700   -102005.84   -92166.306    238.94018    20724    226084.41    2.6516058   -6.9680241    287.62579   -272.70295    434.13927    23.502713    22.157643   0.96796663    435.10723   -3045.3062 
   18800   -101975.08   -92119.686    239.32533    20724    226324.24    35.333278   -54.827215   -44.247713    205.07476    434.27981     23.51137    22.165805   0.89769573     435.1775   -3088.5063 
   18900   -101965.43   -92112.962    239.25432    20724    225930.11    8.2913199    22.837886    -149.2916    151.32767    434.01947    23.497933    22.153137    1.0278653    435.04733   -3106.0222 
   19000   -101841.82   -92042.319    237.96806    20724    226117.57   -2.2842008    156.86903   -42.898257   -120.82338    434.24376    23.501608    22.156602   0.91572098    435.15948   -3171.7186 
   19100   -101973.58    -92046.63    241.06316    20724    226179.39    21.662688    184.19409    80.845733   -200.05176    434.27338    23.504019    22.158874   0.90091217    435.17429   -3170.6571 
   19200   -101912.35   -92049.918    239.49632    20724    226044.42   -54.250396   -67.349077   -0.9319886   -94.470123    434.20923     23.49874    22.153898   0.93298465    435.14222   -3166.1006 
   19300   -101967.21   -92026.622    241.39431    20724     226216.2    14.502873   -16.527851    228.84233   -168.80586    434.21862    23.507413    22.162075   0.92828823    435.14691   -3188.7529 
   19400   -101893.27   -92058.171    238.83246    20724    225950.64    7.2677732    148.82117    29.737994   -156.75585    433.77401    23.505649    22.160411    1.1505936    434.92461   -3165.7747 
   19500   -101911.92    -92014.36    240.34942    20724    226118.28    -4.566903    26.204897   -231.81411     191.9085    434.08993    23.505809    22.160562   0.99263598    435.08256   -3206.0304 
   19600   -101859.74   -91969.856    240.16292    20724    226173.68   -2.9034401   -66.173434    72.991128   -15.528015    434.11105    23.508116    22.162737   0.98207701    435.09312   -3250.5473 
   19700   -101888.92   -91953.821    241.26095    20724    226208.15    2.3947046    44.887731    -49.84874    12.145123    434.28546    23.505186    22.159975   0.89486793    435.18033   -3265.2041 
   19800   -101852.64    -91935.92    240.81468    20724    226284.39   -55.825931   -35.893869    20.330717   -151.91464    434.38865    23.506354    22.161076   0.84327538    435.23192   -3279.2771 
   19900   -101870.52   -91964.323    240.55911    20724    226137.68   -18.249389    75.339266    -24.23912   -105.84831    434.28997    23.501402    22.156408    0.8926164    435.18258   -3257.7633 
   20000   -101795.13   -91947.322    239.14119    20724    226070.81    25.600154    23.945022    118.99197   -66.136527    434.25875    23.498772    22.153928   0.90822648    435.16697   -3280.5832 
   20100   -101788.99   -91912.731    239.83206    20724    226170.77   -41.212409       182.81   -230.48767   -75.959558    434.39406    23.500306    22.155374   0.84057042    435.23463   -3309.0749 
   20200   -101695.76   -91867.308    238.67115    20724    226303.03   -8.9129836   -116.86248    76.101887    14.021642    434.12196    23.514542    22.168795   0.97661814    435.09858   -3351.8875 
   20300   -101831.81   -91876.628    241.74852    20724    226288.83    9.5696709    26.098218    137.40463   -134.79384    434.01888    23.516597    22.170732    1.0281606    435.04704   -3344.6745 
   20400   -101802.67    -91860.16    241.44101    20724    226089.37    55.962908    190.99284    70.473061   -93.577179    434.13783    23.503009    22.157923   0.96868651    435.10651   -3371.4908 
   20500   -101721.29   -91868.473     239.2628    20724    226170.49   -16.700462   -114.90296    6.6009369    58.200636    434.10594    23.508089    22.162712   0.98462937    435.09057   -3358.1263 
   20600   -101860.41   -91867.343    242.66853    20724    225964.38    15.496346    19.156069   -69.837549    97.170518    433.62435    23.510419    22.164909     1.225426    434.84977   -3368.9424 
   20700   -101804.22   -91905.643     240.3741    20724    225969.98    133.21172    245.25439    215.82679   -61.446012    433.56201    23.512401    22.166777    1.2565969     434.8186   -3337.2474 
   20800   -101746.46   -91865.867    239.93743    20724    226172.84    15.983861    72.374594    4.1222943   -28.545304    434.02388    23.510433    22.164922    1.0256623    435.04954   -3364.5723 
   20900   -101737.41   -91832.794    240.52067    20724     226409.4    19.337595    92.757625   -166.19831    131.45347    434.28181    23.515739    22.169924   0.89669546     435.1785    -3391.975 
   21000   -101592.53   -91856.438    236.42821    20724    225940.36    82.394468   -83.375063   -189.01405    519.57251     433.7319    23.506255    22.160983    1.1716499    434.90355   -3384.1726 
   21100   -101758.35   -91832.732     241.0307    20724    226182.71    56.910898    131.69225   -159.03594    198.07639     434.0006    23.511577       22.166    1.0372998     435.0379   -3401.6797 
   21200   -101719.23   -91790.964    241.09506    20724     226124.2    28.215317   -27.928523    97.018503    15.555972    434.15061    23.504474    22.159303   0.96229692     435.1129   -3446.3941 
   21300   -101738.65   -91822.953     240.7898    20724    226018.14    49.046842     89.26329    100.07938   -42.202141    433.81111    23.508154    22.162773    1.1320469    434.94315   -3418.3453 
   21400   -101738.73   -91774.135    241.97729    20724    226193.24   -28.795408    226.61555    114.26226   -427.26403    433.90309    23.514765    22.169006    1.0860532    434.98915   -3461.3656 
   21500    -101638.7   -91741.055    240.35147    20724     226049.2   -2.7933509   -6.3632857    63.497448   -65.514215    433.85089    23.508691    22.163279    1.1121567    434.96304   -3498.0911 
   21600   -101657.76   -91739.562    240.85055    20724    226132.42     104.5969    282.79712    1.1868464     29.80674    434.01534    23.508563    22.163159      1.02993    435.04527   -3505.5129 
   21700   -101690.01   -91712.695      242.286    20724     226130.2    85.695359    101.67629    62.419044    92.990743    434.20403    23.503339    22.158234   0.93558648    435.13961   -3528.6347 
   21800   -101616.84   -91688.076    241.10699    20724    226067.71    24.447171   -77.840948   -22.333027    173.51549    434.05296    23.504181    22.159027    1.0111203    435.06408   -3555.0665 
   21900   -101690.27   -91712.125    242.30616    20724    226395.31   -18.726513    177.81776    105.39582   -339.39312    434.39832    23.511853     22.16626   0.83843853    435.23676   -3522.2889 
   22000   -101744.68   -91757.211    242.53266    20724    226194.13    38.874977    287.58547    3.1156398   -174.07618    434.29975    23.504071    22.158924    0.8877254    435.18747   -3487.0405 
   22100   -101727.39   -91750.153    242.28411    20724    226343.63   -40.478275    20.671459    119.42324   -261.52953     434.5123    23.506085    22.160823   0.78144972    435.29375   -3487.6337 
   22200   -101717.36    -91736.89     242.3628    20724    226301.39   -56.579635   -57.681143   -195.15357    83.095804    434.38113     23.50744      22.1621   0.84703301    435.22817   -3502.5865 
   22300   -101744.81   -91790.459    241.72844    20724    226364.18   -52.466222   -43.817936   -219.75063     106.1699    434.43695    23.509192    22.163751   0.81912557    435.25607   -3448.0863 
   22400   -101664.02   -91753.753    240.65782    20724     226432.7    37.258636    23.556946   -33.984615    122.20358    434.57174    23.509102    22.163667   0.75173088    435.32347   -3486.8954 
   22500   -101722.96   -91772.662    241.63012    20724    226293.89   -31.679597   -48.222488   -21.755673   -25.060631    434.56454     23.50209    22.157056   0.75532829    435.31987    -3472.177 
   22600   -101628.08   -91736.569    240.20253    20724     226505.6    2.2677284    25.782546   -11.208676   -7.7706857    434.66125    23.510465    22.164952   0.70697301    435.36823   -3502.7128 
   22700   -101718.27   -91781.766    241.29499    20724    226337.94   -21.854901   -96.888736   -162.15517     193.4792    434.52624    23.505413    22.160189   0.77447852    435.30072   -3463.2629 
   22800   -101612.05    -91713.29    240.37843    20724     226321.6    -11.27455    77.679994    -170.5391    59.035457    434.67761    23.500472     22.15553   0.69879305    435.37641   -3532.5563 
   22900   -101628.13   -91680.047     241.5762    20724    226436.18   -12.290466    -111.2761    89.547159   -15.142456    434.31684    23.516181     22.17034   0.87917762    435.19602   -3564.1919 
   23000   -101563.25   -91642.647    240.90885    20724    226306.06   -24.328646     71.96134   -18.996907   -125.95037    434.25904    23.510988    22.165444   0.90808019    435.16712   -3603.6319 
   23100   -101652.97   -91683.978    242.08399    20724    226127.22    19.494899    25.578963    11.773377    21.132358    434.14143    23.504879    22.159685   0.96688703    435.10831   -3572.7002 
   23200   -101759.36   -91685.023    244.64226    20724     226143.2   -56.586466    96.470774   -355.13639    88.906213    434.39598    23.498822    22.153975   0.83961205    435.23559   -3568.4999 
   23300   -101565.81    -91695.05    239.69855    20724    226171.92    57.581192    116.65966    176.41532    -120.3314    434.42003    23.499663    22.154768   0.82758327    435.24762   -3562.0671 
   23400   -101682.18   -91675.308    243.00393    20724    226171.29   -72.841771    21.713924   -278.91072    38.671486    434.05228    23.509584    22.164121    1.0114607    435.06374   -3578.9768 
   23500   -101712.07   -91659.127    244.12257    20724    226432.16   -26.509357   -16.804074   -187.30042    124.57642    434.26831    23.517286    22.171383   0.90344685    435.17175   -3589.9069 
   23600   -101554.67   -91685.011    239.67172    20724    226101.71    40.300403    12.059696    49.700518    59.140996    434.08554    23.505066    22.159862   0.99483082    435.08037   -3577.8047 
   23700      -101581   -91661.627    240.87913    20724    226061.85   -6.7301628      170.845   -9.7515567   -181.28393     434.1645    23.500857    22.155894   0.95535114    435.11985   -3599.7806 
   23800   -101644.49    -91651.27    242.67232    20724    226017.06   -39.253753   -180.33045    122.90566   -60.336467    434.11512    23.499865    22.154958   0.98003855    435.09516    -3612.188 
   23900   -101691.06   -91656.488     243.6766    20724    226087.01    -48.51466   -83.171892   -27.021418   -35.350671    433.83627    23.511054    22.165507    1.1194656    434.95573   -3606.2396 
   24000   -101584.96   -91675.926    240.62804    20724    225885.56    37.885103    24.814062    49.560217    39.281029    433.66867    23.505117     22.15991    1.2032633    434.87194    -3596.727 
   24100   -101636.94    -91616.56     243.3318    20724    226131.88    29.380878   -56.375922    55.552307    88.966249    433.88091    23.512177    22.166566    1.0971428    434.97806   -3649.8482 
   24200   -101632.25   -91615.352    243.24735    20724    225862.89   -30.331586   -107.52387    114.49039   -97.961281    433.66954    23.503914    22.158776    1.2028277    434.87237   -3658.9684 
   24300   -101643.13   -91650.036    242.66923    20724     225994.4   -90.315714   -83.361265    95.656856   -283.24273    433.86778    23.505384    22.160162    1.1037119    434.97149   -3618.0979 
   24400   -101559.77   -91626.427    241.21833    20724    225828.09    -12.13155   -10.940841   -85.270035    59.816227    433.70654    23.501101    22.156124    1.1843322    434.89087   -3648.9838 
   24500   -101516.63   -91590.447    241.04434    20724    225980.14    46.585281    117.10151   -205.11082    227.76516    433.83986    23.505399    22.160176    1.1176699    434.95753   -3686.3066 
   24600   -101573.19   -91555.312    243.27105    20724    225941.27   -50.089052    -49.94754   -228.25195    127.93234    433.82167     23.50387    22.158734    1.1267651    434.94843   -3718.6614 
   24700   -101545.47   -91565.135     242.3594    20724    226029.85         40.1    279.60612    11.178934   -170.48505    433.81159     23.50875    22.163335    1.1318061    434.94339   -3710.6747 
   24800   -101511.37   -91596.893    240.76018    20724    225914.47    5.3193447   -259.94356    10.791145    265.11045    433.79056    23.503319    22.158214    1.1423184    434.93288   -3682.0975 
   24900   -101532.11    -91545.98    242.50014    20724    225748.39   -32.089984   -93.517597    169.23259   -171.98494    433.65707    23.498294    22.153477    1.2090629    434.86614   -3737.9101 
   25000   -101546.77   -91593.893    241.69257    20724    225638.03    1.3472893   -89.277252    30.440739    62.878381    433.38295    23.499978    22.155065    1.3461231    434.72908   -3694.7154 
   25100   -101514.48   -91589.984    241.00351    20724    225773.33    87.254049    188.38886    195.94793   -122.57464    433.33044    23.508447    22.163049    1.3723786    434.70282   -3701.2012 
   25200   -101573.81   -91593.279    242.36407    20724    225688.37    76.429158   -63.318195   -15.451679    308.05735    433.40006    23.502135    22.157099    1.3375692    434.73763   -3702.0075 
   25300   -101566.05   -91505.088    244.31735    20724    225851.25    61.610273    9.8383523    189.06619    -14.07372     433.3649    23.511568    22.165992    1.3551501    434.72005   -3785.2406 
   25400   -101571.65   -91515.951    244.18949    20724    225659.53   -1.1980535   -74.020436    69.264612    1.1616641    433.39191    23.500854    22.155891     1.341643    434.73356   -3777.8654 
   25500   -101478.79    -91489.43    242.57851    20724    225784.45   -13.150352     23.85808   -36.470727    -26.83841     433.4623     23.50545    22.160223     1.306448    434.76875   -3801.0081 
   25600   -101596.46     -91504.2    245.07741    20724     226015.6    39.492788   -23.256941    81.777193    59.958112    433.78114    23.508834    22.163414    1.1470305    434.92817   -3784.6208 
   25700   -101449.21   -91481.972    242.04145    20724    225768.72    26.237788    12.608037      197.681   -131.57567    433.52562    23.502914    22.157833    1.2747914    434.80041   -3815.0215 
   25800   -101428.18     -91433.4     242.7102    20724    226049.24    23.473953    89.871929   -157.26296    137.81289    433.90681    23.507179    22.161854    1.0841974      434.991   -3855.4079 
   25900   -101464.65   -91416.384    244.00897    20724    225984.65    17.088509     76.80362    26.013468    -51.55156    433.81275    23.506368    22.161089    1.1312265    434.94397   -3874.5753 
   26000   -101389.56   -91372.493     243.2513    20724    225846.41   -7.0136313    91.039999   -124.11836    12.037469    433.61566    23.504517    22.159344    1.2297694    434.84543   -3923.3568 
   26100   -101431.92   -91338.281    245.11099    20724    225891.36    13.357041    120.95839    159.75241   -240.63968    433.73617     23.50359     22.15847    1.1695161    434.90568   -3956.8728 
   26200   -101367.74   -91334.948    243.63334    20724    225866.69    4.4437943    3.6339496    38.449923    -28.75249    433.72747    23.502542    22.157483    1.1738673    434.90133    -3962.154 
   26300   -101376.09   -91351.607    243.43146    20724    225926.85    78.735412    152.08512   -13.191211    97.312328      433.906    23.500836    22.155874    1.0846014     434.9906   -3945.3743 
   26400   -101350.41    -91317.33    243.64029    20724    225805.56    -81.95575    -347.7248   -109.43538    211.29293    433.84177    23.496266    22.151565    1.1167127    434.95849   -3978.4542 
   26500    -101428.3   -91317.983    245.51583    20724    225975.15    28.540683   -90.339865     86.41474    89.547174    433.55341    23.512903     22.16725    1.2608973     434.8143    -3979.275 
   26600   -101347.06    -91312.37    243.67931    20724     226016.8   -35.073721   -223.13975   -145.52043    263.43901    433.58408    23.514238    22.168509    1.2455604    434.82964   -3979.4726 
   26700   -101331.83   -91309.047    243.39016    20724    225816.02    1.3132047   -12.352789      42.0563   -25.763897    433.27969    23.512046    22.166442    1.3977529    434.67745   -3993.4478 
   26800   -101416.26   -91309.167    245.43756    20724    226130.65    88.922821   -112.91245    207.49706    172.18386    433.47779    23.523043     22.17681    1.2987036     434.7765   -3992.5751 
   26900   -101421.53   -91342.879    244.74689    20724     225808.4   -88.061363   -56.775222    -198.6834   -8.7254664    433.14746    23.515238    22.169451    1.4638717    434.61133   -3959.2124 
   27000   -101491.23   -91309.079    247.26017    20724    225944.24   -130.07376   -53.465261   -47.100569   -289.65546    433.34593    23.516923     22.17104    1.3646349    434.71057   -3988.8555 
   27100   -101510.99   -91371.847    246.21589    20724    225963.48    93.504899    146.82048    103.07651    30.617707     433.3379    23.518142    22.172189    1.3686515    434.70655   -3937.0934 
   27200   -101380.95   -91313.578    244.47297    20724    225959.94   -113.36955   -125.52453   -54.131621   -160.45249    433.29039    23.519247    22.173231    1.3924047     434.6828   -3985.9836 
   27300   -101346.39   -91291.458    244.17088    20724    225948.93    1.0675031    57.583489      198.215   -252.59598    433.28317     23.51887    22.172876    1.3960125    434.67919   -4016.1839 
   27400   -101463.37   -91305.738    246.66491    20724    226087.13   -35.070597   -286.08471   -170.93855    351.81147    433.47611    23.520825    22.174719    1.2995471    434.77565   -3997.6486 
   27500   -101221.64   -91279.648    241.42836    20724    225962.17    77.805451    129.64563     88.25283    15.517888    433.24386    23.520626    22.174531    1.4156688    434.65953   -4031.9809 
   27600   -101397.58   -91274.202    245.83313    20724     226064.9    20.925319    77.675557   -42.428339    27.528739    433.52031     23.51847    22.172498    1.2774446    434.79776   -4032.3287 
   27700   -101397.57    -91246.66    246.50151    20724    225927.27   -33.786291    87.016633   -166.70626   -21.669249    433.31908    23.516768    22.170894    1.3780591    434.69714   -4063.7985 
   27800   -101337.29   -91256.288    244.80407    20724    226027.25    -5.233986    168.05073    -9.537891    -174.2148    433.55293    23.515626    22.169818    1.2611367    434.81406   -4052.0899 
   27900   -101400.56   -91305.498    245.14535    20724    226003.39   -13.627332   -22.767208   -74.214156    56.099368    433.52926    23.515027    22.169253    1.2729702    434.80223   -4004.3733 
   28000   -101357.54   -91253.638    245.36019    20724     226137.9   -2.4588125    199.54714   -244.20961    37.286035    433.61427    23.519718    22.173675    1.2304634    434.84474   -4054.1947 
   28100   -101352.66   -91254.406    245.22291    20724     226055.1    31.847453   -57.333349   -38.796886    191.67259    433.59241    23.516004    22.170174    1.2413961     434.8338   -4057.5991 
   28200    -101330.5   -91261.569    244.51087    20724    225992.89   -57.229597   -50.387329    111.43012   -232.73158    433.83611    23.506164    22.160897    1.1195434    434.95566   -4049.5397 
   28300    -101288.8   -91212.446    244.69109    20724    226009.49    97.664332    104.75806    214.02995   -25.795007    433.84933    23.506669    22.161373    1.1129344    434.96227   -4107.4016 
   28400   -101251.49   -91218.177      243.646    20724    226159.48   -58.364574   -133.31046    175.10527   -216.88853    433.99285    23.510579    22.165059    1.0411754    435.03402   -4089.5291 
   28500   -101409.76   -91216.532    247.52933    20724    226249.72   -32.470609   -16.382859    44.824194   -125.85316    433.99097     23.51532    22.169529    1.0421166    435.03308   -4094.7766 
   28600   -101379.57   -91243.889    246.13176    20724    226235.85   -12.204451   -39.856491   -68.675674    71.918813    434.06085    23.512706    22.167065    1.0071744    435.06803   -4067.5843 
   28700   -101284.35   -91198.171    244.92979    20724    226261.04   -44.128907    76.545399   -29.031748   -179.90037    434.10304    23.512873    22.167221   0.98608137    435.08912   -4110.7843 
   28800   -101282.94   -91196.701    244.93111    20724    226097.42    49.453955    86.167739    100.49632   -38.302196    434.10461    23.504327    22.159165   0.98529355    435.08991   -4123.2042 
   28900   -101244.71   -91148.263    245.17902    20724    226159.81   -47.036969    -84.61197    59.366866    -115.8658    434.17412    23.505688    22.160448   0.95054157    435.12466   -4166.4267 
   29000   -101280.36   -91147.969    246.05184    20724    226301.32  -0.79259494    160.79156    97.304068   -260.47341    434.00917    23.517509    22.171592    1.0330171    435.04218   -4166.3118 
   29100   -101280.53    -91179.98    245.27865    20724    226209.13   -6.7760409     136.7667   -220.68448    63.589659    434.12331    23.509626    22.164161   0.97594428    435.09926   -4137.4757 
   29200   -101237.28   -91135.385    245.31143    20724    226275.26    89.313559    198.85202   -135.67055    204.75921    434.22465    23.510318    22.164813   0.92527585    435.14992   -4185.9097 
   29300   -101281.69   -91128.179    246.56468    20724    226392.91   -44.824749   -76.543625    143.98707   -201.91769    434.34873     23.51307    22.167408   0.86323678    435.21196   -4183.9486 
   29400   -101321.47    -91142.85    247.17455    20724    226408.71   -39.411356    118.47048   -26.674086   -210.03046    434.12933    23.519832    22.173783   0.97293522    435.10226    -4170.828 
   29500   -101203.84   -91145.473    244.25443    20724    226211.22   -29.994626    35.361163   -185.47244    60.127395    434.24007    23.506574    22.161284   0.91756714    435.15763   -4174.1329 
   29600   -101232.77   -91107.058    245.88962    20724    226359.88    6.5051569    256.50616    -448.9243    211.93361    434.32508    23.511996    22.166395   0.87505992    435.20014   -4211.0168 
   29700   -101201.54   -91109.291    245.07718    20724     226175.8    17.312429    42.692016   -34.833011    44.078283    434.20989    23.505551    22.160318   0.93265414    435.14255   -4214.0471 
   29800   -101272.12   -91099.731    247.02312    20724    226368.35    12.750373   -200.19138      207.881    30.561502    434.21893    23.515309    22.169519   0.92813517    435.14706   -4220.9372 
   29900   -101268.35   -91088.024    247.21584    20724    226294.07   -5.8994895     103.2898    147.03874   -268.02701    434.11165    23.514356     22.16862   0.98177467    435.09343   -4235.9559 
   30000   -101288.04   -91098.652     247.4361    20724    226230.18     39.94728    118.45863    8.3235034   -6.9402947    433.90021    23.516764     22.17089    1.0874969     434.9877   -4229.7388 
   30100   -101307.64   -91095.778    247.98184    20724    226030.88   -49.758371     56.77008   -251.92537    45.880181    433.75217    23.510414    22.164903    1.1615157    434.91368   -4237.8491 
   30200   -101195.51   -91091.112    245.37222    20724    226253.46   -33.723138    2.9785118   -466.59701    362.44908    433.90417    23.517866    22.171929    1.0855132    434.98969   -4235.2298 
   30300   -101239.92   -91092.152    246.42524    20724    226198.77   -37.954496   -46.037796   -35.272968   -32.552725    433.77654    23.518483    22.172511      1.14933    434.92587   -4236.1732 
   30400   -101151.04   -91028.128    245.82175    20724    226188.82   -51.342319    89.480649   -75.785315   -167.72229    433.91935    23.514095    22.168374     1.077927    434.99727   -4302.6626 
   30500   -101174.85   -91044.178    246.01026    20724    226109.34   -51.855615   -73.551383   -251.10372    169.08825    433.85902    23.511598     22.16602    1.1080917    434.96711   -4289.8717 
   30600   -101158.12   -90981.994    247.11386    20724    225967.92   -42.657198   -149.95572    127.56146   -105.57733    433.78787    23.506172    22.160904    1.1436651    434.93153   -4356.8187 
   30700   -101093.08   -91007.519    244.91462    20724    225970.77     29.87029    52.190975   -108.20456    145.62445    433.65558    23.509905    22.164424    1.2098094    434.86539   -4335.4482 
   30800   -101105.02   -90999.302    245.40427    20724    226325.07     24.89307   -137.18348    86.083105    125.77959    433.61909    23.529318    22.182726    1.2280528    434.84715   -4333.7997 
   30900   -101132.73   -90990.521    246.29025    20724    226180.03    11.767086    199.55281   -126.10369   -38.147862    433.83375    23.515958     22.17013    1.1207235    434.95448   -4348.0346 
   31000   -101089.48   -90943.247     246.3881    20724    225998.75   -13.589905     40.42483    4.8557507   -86.050297    433.78813    23.507768    22.162409    1.1435337    434.93167    -4400.603 
   31100   -101125.03   -90935.684    247.43506    20724    226137.15     7.482184   -35.206827   -46.684692    104.33807    433.87619    23.512579    22.166945    1.0995072    434.97569   -4405.8577 
   31200   -101160.87   -90929.521    248.45488    20724    225980.79   -60.076181   -157.62693    -281.1016    258.49998    433.66515    23.510167    22.164671    1.2050236    434.87018   -4413.5224 
   31300   -101147.09   -90916.152    248.44495    20724    225977.97   -25.907245    42.054727    241.20912   -360.98558    433.93276     23.50277    22.157697    1.0712202    435.00398   -4430.3141 
   31400   -101139.57   -90903.502    248.56949    20724    225926.93    6.1414383   -69.212345   -33.148475    120.78513    433.98885    23.498597    22.153762    1.0431737    435.03203   -4445.2146 
   31500   -101083.37   -90910.821    247.02705    20724    226041.75   -3.1345545   -122.27642   -109.99197    222.86473    433.94842    23.505662    22.160424    1.0633911    435.01181   -4435.3692 
   31600   -101072.27   -90953.847    245.71263    20724    225885.62    5.4237813     93.39189   -59.707808   -17.412738     433.8226     23.50095    22.155981    1.1262984     434.9489   -4397.8422 
   31700   -101050.54   -90949.812    245.28311    20724    226137.72    42.639254    37.939627    142.99531   -53.017175    433.98963    23.509535    22.164075    1.0427862    435.03241   -4396.5402 
   31800    -101093.1   -90924.042    246.94226    20724    226185.21   -14.974904    149.88725    170.57554    -365.3875    433.94871    23.513112    22.167447    1.0632435    435.01196   -4420.3137 
   31900   -101047.36   -90955.564    245.06605    20724     225961.8    76.516752    12.806611    204.13677    12.606874    433.75041    23.506869    22.161561    1.1623967     434.9128   -4401.9073 
   32000   -100990.02   -90927.233    244.36156    20724    225954.58    35.426271    15.137054    228.90845   -137.76669    433.54688     23.51201    22.166408    1.2641598    434.81104   -4429.7803 
   32100   -101153.15    -90975.51    247.15064    20724    225916.37    62.724456   -3.5416521     74.24225    117.47277    433.58891    23.508882    22.163459    1.2431426    434.83206   -4388.9864 
   32200    -101030.2   -90986.359     243.9017    20724    225909.55    93.723528   -27.387941    191.42881    117.12971    433.47322    23.511664    22.166082    1.3009878    434.77421   -4377.8009 
   32300   -101088.72   -90932.059    246.64131    20724    226025.36    4.0167214    67.681338    19.791223   -75.422397     433.6291    23.513463    22.167778    1.2230518    434.85215   -4426.9979 
   32400   -101077.44   -90922.738    246.59366    20724    225778.77    90.027291    129.42379   -109.50073    250.15881    433.60026    23.501414    22.156419    1.2374701    434.83773   -4447.7428 
   32500   -101110.04       -90889    248.20469    20724    225796.94    9.9242975   -27.858519   -142.72179     200.3532    433.56491    23.503318    22.158214    1.2551467    434.82005   -4477.6272 
   32600   -100960.31   -90871.491    244.99382    20724    225949.08    50.928957    146.20158   -180.15448    186.73977    433.47903    23.513564    22.167873    1.2980827    434.77712     -4491.38 
   32700   -101057.74   -90877.963    247.20268    20724    225886.95    8.9163065    36.986536   -96.248746     86.01113    433.29045    23.515446    22.169648    1.3923742    434.68283   -4488.6048 
   32800   -101064.87   -90912.012    246.54889    20724    225891.35   -6.2379702    219.22389   -203.20464   -34.733151    433.49012    23.510259    22.164757    1.2925419    434.78266   -4454.1158 
   32900   -101049.59   -90897.678    246.52596    20724    225982.49     25.96347   -107.86446   -121.79695    307.55182    433.03239    23.527426    22.180942    1.5214034     434.5538   -4469.3021 
   33000   -100997.71   -90874.857     245.8202    20724    225973.04    -8.070894   -18.317688   -39.706934     33.81194     433.1189    23.524585    22.178263    1.4781519    434.59705   -4489.2244 
   33100   -101043.23   -90873.564    246.95714    20724    225814.61    149.00481    321.29896    334.91964   -209.20417    433.44459      23.5075    22.162156    1.3153036     434.7599   -4505.1779 
   33200   -101023.23   -90904.629    245.71712    20724    225898.19    12.715065    13.848534    56.951698   -32.655038    433.37682    23.513688     22.16799    1.3491882    434.72601   -4467.1083 
   33300   -101102.94   -90885.742    248.11124    20724    225967.56    42.569141   -43.520946    110.05848    61.169886    433.02819    23.526763    22.180317    1.5235036     434.5517    -4487.624 
   33400   -100983.08    -90856.53    245.91004    20724    225886.14   -15.481602   -14.327231    208.47986   -240.59743     433.2449    23.516641    22.170774    1.4151507    434.66005   -4516.0017 
   33500   -101044.91    -90856.08     247.4225    20724    226050.23    22.619791    38.316009    52.439649   -22.896286    433.54463    23.517047    22.171157     1.265283    434.80992    -4516.026 
   33600   -101109.38     -90822.2    249.81076    20724    225966.41    -14.32821    22.091545    34.417399   -99.493574     433.0385    23.526423    22.179996     1.518352    434.55685   -4552.9105 
   33700   -101012.76   -90849.512    246.80124    20724    225685.34    37.363709    52.152949    6.6026764      53.3355    433.15615    23.508593    22.163187    1.4595249    434.61568   -4538.1175 
   33800   -101027.31   -90859.805     246.9045    20724    225735.77    53.321707   -112.80826    92.460461    180.31291    432.66062     23.52468    22.178353    1.7072894    434.36791   -4527.3049 
   33900   -100958.29   -90814.849     246.3203    20724    225704.69    61.521753   -187.11661    151.72209    219.95978    433.00788    23.513626    22.167932    1.5336583    434.54154   -4575.5807 
   34000   -101146.94   -90886.764      249.155    20724    225700.31   -64.456854    20.812611   -228.57678    14.393603    433.01299    23.513259    22.167586    1.5311072    434.54409   -4500.4684 
   34100   -100952.68   -90845.225    245.44635    20724    225916.34    50.580846   -114.91514    84.667506    181.99017    433.17022    23.520239    22.174167    1.4524919    434.62271   -4540.2596 
   34200   -100906.25   -90824.362    244.82563    20724    225924.36    49.112383   -183.22199    38.958541    291.60059    433.15696    23.521017      22.1749    1.4591186    434.61608    -4558.979 
   34300    -100965.4   -90787.371    247.16012    20724     225925.3   -14.486589   -224.03564    52.747072     127.8288    432.97873    23.525906    22.179509    1.5482334    434.52697   -4595.8722 
   34400   -101019.25   -90810.528     247.9054    20724     225852.5    -67.79095    -168.5554   -24.674389   -10.143056    432.94538    23.523022     22.17679    1.5649107    434.51029   -4573.2722 
   34500   -101063.42   -90804.823    249.11669    20724    226024.89   -25.150607    16.897635   -145.03553    52.686074    433.09198    23.528014    22.181497    1.4916096    434.58359   -4579.7658 
   34600   -100989.85   -90781.384    247.89941    20724    225827.39    41.912553    87.389418    -77.02321    115.37145    433.19079     23.51505    22.169275    1.4422028      434.633   -4611.2207 
   34700   -100839.17   -90789.057     244.0538    20724    225847.99    142.84634    262.83451    70.973337    94.731166    433.00395    23.521196    22.175069    1.5356268    434.53957   -4608.3359 
   34800    -101006.1    -90775.46    248.43774    20724    226070.98   -92.848941     29.77814   -9.9105274   -298.41444    433.77982     23.51175    22.166163    1.1476903    434.92751   -4606.7192 
   34900   -101024.48   -90786.715    248.61085    20724    225941.07   -35.117471   -126.46757    27.418475    -6.303313    433.43818    23.514255    22.168525    1.3185104    434.75669   -4604.0791 
   35000   -100952.36   -90782.145    246.97052    20724     225962.4    21.014954   -61.811136    32.391285    92.464712    433.34972    23.517765    22.171834     1.362738    434.71246   -4611.5515 
   35100   -101042.88   -90786.557    249.06135    20724    226122.88   -112.61553   -7.8857806   -247.36981   -82.590986    433.75261    23.515186    22.169402    1.1612951     434.9139   -4597.5684 
   35200   -101071.64   -90783.057    249.84494    20724    226150.45   -58.983581     -348.826   -112.51694    284.39219    433.88033    23.513158    22.167491     1.097437    434.97776   -4603.7248 
   35300   -100934.77   -90763.073    247.00641    20724    226295.22    30.506402    30.676481     65.57336   -4.7306349    433.78627    23.523233    22.176989    1.1444643    434.93074   -4625.0453 
   35400   -101101.81   -90732.744    251.79921    20724    226129.32   -109.23501   -239.80693   -253.14931    165.25123    433.75874    23.515355    22.169562    1.1582318    434.91697   -4654.9566 
   35500   -100955.18   -90768.695    247.36542    20724    226054.46   -1.3714427   -138.19269   -1.3531171    135.43148    433.95221     23.50622     22.16095    1.0614926    435.01371   -4626.1144 
   35600   -100888.64    -90698.41    247.45634    20724    226027.28   -58.712282   -68.885999    127.71431   -234.96516     433.6749    23.512321    22.166701    1.2001477    434.87505   -4696.1682 
   35700   -100905.11    -90701.57    247.77975    20724    225857.14     37.38703    129.29607    70.533635   -87.668615    433.47362    23.508926    22.163501    1.3007894    434.77441   -4704.9376 
   35800   -101027.74   -90737.422    249.88696    20724    225870.83   -1.5965826     27.69995    257.14542   -289.63511    433.53931    23.507857    22.162493    1.2679449    434.80726   -4668.4369 
   35900   -100916.77   -90759.382    246.65898    20724    225808.86      76.6907    102.77626    16.014529    111.28131    433.45438    23.506935    22.161623    1.3104091    434.76479   -4653.8681 
[...]
  491300   -93017.615   -80247.044    310.11669    20724    220996.41    98.443423    115.80092    335.60873   -156.07938    421.66933    23.577829    22.228461    7.2029344    428.87227   -22827.147 
  491400   -93158.526   -80226.106    314.04697    20724    220752.55   -66.536416    -28.17449    62.521103   -233.95586    421.93745    23.557329    22.209134    7.0688757    429.00632   -22854.229 
  491500   -93059.921   -80239.207    311.33432    20724    220855.53   -77.371748   -70.318887    42.542278   -204.33864    422.17587    23.556168    22.208039    6.9496657    429.12553   -22838.001 
  491600   -93073.192   -80235.981    311.73494    20724    220817.82   -8.5337263    -52.45619   -64.920947    91.775959    421.79391     23.56482    22.216196    7.1406436    428.93456   -22847.292 
  491700   -93077.172   -80252.187    311.43804    20724     220576.7   -110.43665   -277.05689   -214.60103    160.34797    421.58412     23.55781    22.209587     7.245538    428.82966   -22841.231 
  491800   -92998.346   -80257.559    309.39341    20724    220440.98     179.6013    231.16233    115.54183    192.09972    421.50261    23.552838      22.2049    7.2862951     428.7889   -22857.225 
  491900    -93100.12   -80247.451    312.11033    20724    220563.52   -10.694714   -98.172976   -97.249244    163.33808    421.44136    23.561095    22.212684      7.31692    428.75828   -22856.598 
  492000   -92993.339   -80259.356     309.2282    20724    220914.29    86.922519    102.85738   -86.800859    244.71104    422.02193    23.563598    22.215044    7.0266343    429.04857   -22834.708 
  492100   -93067.632   -80219.254    312.00613    20724    220661.51    8.2186163   -62.470308   -126.82285    213.94901    421.93004    23.552678    22.204749    7.0725818    429.00262   -22881.513 
  492200   -92995.828   -80206.128     310.5812    20724    220779.68    -22.52954    95.947959   -35.297661   -128.23892    422.12454    23.553555    22.205576    6.9753314    429.09987   -22890.868 
  492300   -93121.013   -80218.934    313.31017    20724    220683.88   -157.08724   -293.34833   -416.51696    238.60356     422.1365    23.548111    22.200443    6.9693508    429.10585   -22880.617 
  492400   -93226.478   -80263.646    314.78548    20724    220678.31   -137.43895   -158.81263   -182.41338    -71.09084    421.84469    23.555956     22.20784    7.1152544    428.95995    -22840.22 
  492500    -93116.03       -80207    313.47897    20724    220783.32   -83.021194   -252.17234    377.51505    -374.4063    421.88365    23.560473    22.212097    7.0957769    428.97942   -22893.372 
  492600    -93062.07   -80179.767    312.82994    20724    220699.64   -59.570704    69.980176   -140.02987   -108.66242    421.50012    23.566722    22.217989    7.2875422    428.78766   -22929.697 
  492700   -93175.657   -80249.164    313.90303    20724    220654.01   -100.55192   -107.84535   -275.02026    81.209858    422.13408    23.546584    22.199004    6.9705609    429.10464   -22863.453 
  492800   -93066.593   -80253.648    311.14567    20724    220511.81    126.29268    96.591828   -133.96963    416.25582    421.67546    23.551793    22.203915    7.1998681    428.87533   -22877.284 
  492900   -93156.192   -80228.909    313.92222    20724    220690.73    74.793807    250.27246    19.995116   -45.886154    422.07866    23.550089    22.202308    6.9982704    429.07693   -22893.762 
  493000   -93073.619   -80214.412     312.2691    20724    220741.64   -26.337716    149.61129   -133.53744   -95.087002    421.99249     23.55521    22.207136    7.0413575    429.03384   -22906.268 
  493100   -93149.714   -80253.732    313.16213    20724    220789.42     77.65414    273.64219   -113.72368    73.043906     421.8643    23.561338    22.212913    7.1054476    428.96975   -22872.313 
  493200   -93023.187   -80224.143     310.8081    20724    220600.38    29.218348    106.93212   -80.785487    61.508414    421.84703    23.551732    22.203857     7.114085    428.96111   -22903.493 
  493300   -93203.183   -80285.962    313.67787    20724    220741.93    115.26641    402.98858   -129.11779     71.92845    421.84625    23.559308       22.211     7.114474    428.96073   -22848.565 
  493400   -93015.176   -80244.788    310.11223    20724    220868.91    50.784956   -89.747683   -318.60599    560.70855    422.32229    23.552798    22.204862    6.8764545    429.19875   -22879.974 
  493500   -93259.961    -80243.58    316.08587    20724    220792.37   -90.707837    11.666181   -21.568157   -262.22153    422.33312    23.548415    22.200729    6.8710391    429.20416    -22882.52 
  493600   -93138.008   -80230.614    313.43924    20724    220689.79    -114.7509   -52.034786   -29.037751   -263.18017    421.89402    23.555192    22.207119    7.0905888    428.98461   -22896.925 
  493700   -93035.112    -80240.02    310.71214    20724    220684.02    71.526833   -7.4569497    44.203049     177.8344    421.89397    23.554886     22.20683     7.090613    428.98459   -22898.805 
  493800    -93077.88   -80251.386    311.47469    20724    220615.73   -62.762404   -131.34261    60.043066   -116.98766    421.79085     23.55412    22.206108    7.1421763    428.93302   -22883.649 
  493900   -93047.898   -80255.595    310.64441    20724    220460.95   -99.208711    151.44478    -279.5537   -169.51721    421.56301    23.552218    22.204315    7.2560968     428.8191   -22887.719 
  494000   -93089.173    -80238.72     312.0565    20724     220332.8    -6.692848   -11.708434   -126.87234    118.50223    421.44897    23.548557    22.200863    7.3131135    428.76209   -22916.165 
  494100   -92939.745   -80189.787    309.61611    20724    220486.94    56.507859    205.79393   -218.60427    182.33391    421.72612    23.549051    22.201329    7.1745423    428.90066   -22959.179 
  494200   -93028.091   -80200.167    311.50944    20724    220809.58    62.341094   -103.31362    147.36208    142.97482    421.64309    23.568594    22.219754    7.2160531    428.85915   -22940.041 
  494300   -92976.464    -80188.91    310.52907    20724    220475.77    7.8409204   -109.42359    110.31294     22.63341    421.40607    23.557395    22.209195    7.3345666    428.74063   -22964.914 
  494400   -93057.957   -80160.311    313.20253    20724    221057.06   -44.171971     165.7176   -240.20543   -58.028076    421.89976    23.574624    22.225439    7.0877205    428.98748   -22971.967 
  494500   -93095.844   -80225.424    312.54139    20724    220864.93   -46.633414   -213.49894    60.917461    12.681238      421.606    23.572585    22.223516     7.234601     428.8406   -22916.123 
  494600    -93050.27   -80231.208    311.29424    20724    220453.59    3.1370424     252.5671    18.327598   -261.48357    420.99444    23.567723    22.218932    7.5403782    428.53482   -22929.482 
  494700   -93012.811   -80218.303    310.69794    20724    220770.11    45.005442   -14.655333   -181.24513    330.91678    421.25042    23.577469    22.228121    7.4123883    428.66281   -22936.021 
  494800    -93092.38   -80228.035    312.39385    20724    220701.15    79.356468    146.46788   -69.853858    161.45538    421.25884    23.573551    22.224427    7.4081785    428.66702   -22933.825 
  494900   -93009.821   -80186.045    311.40868    20724    220866.62     81.00282    27.802282    97.846252    117.35993    421.37857    23.579035    22.229598    7.3483137    428.72689   -22972.652 
  495000   -93084.538   -80219.372     312.4138    20724    221004.36    18.051009   -95.568926    182.03462   -32.312665    421.38403    23.586234    22.236384    7.3455863    428.72961   -22931.084 
  495100   -93057.336   -80196.793    312.30153    20724    220912.44    -23.35207   -177.63833    128.72953   -21.147402    421.31165    23.583354    22.233669    7.3817759    428.69342   -22957.903 
  495200   -93173.011   -80229.006    314.32828    20724    220911.27    14.327447   -220.22302    232.72235    30.483004    420.80156    23.597581    22.247082    7.6368214    428.43838   -22930.166 
  495300   -93008.455   -80201.208    311.00731    20724    220837.83   -16.836302    113.30545   -104.15479   -59.659567    420.54453    23.600867     22.25018     7.765336    428.30986   -22959.859 
  495400   -93044.512   -80189.993    312.15524    20724    220576.75    12.815984   -51.391734   -240.45713    330.29681    420.68578    23.582952     22.23329    7.6947083    428.38049    -22984.64 
  495500   -92977.772   -80181.626    310.73776    20724    220692.13    8.0636974    294.93554   -425.27995     154.5355    420.92109    23.582524    22.232887    7.5770539    428.49815   -22990.428 
  495600   -92952.443   -80159.575    310.65813    20724    220434.43    94.398455    47.043192     309.7893   -73.637132    420.97089    23.567358    22.218588    7.5521541    428.52305    -23028.77 
  495700   -92929.814   -80138.034     310.6317    20724    220847.03    109.63306    71.748308    216.00754    41.143335    421.49324    23.574782    22.225588    7.2909788    428.78422   -23036.786 
  495800   -92935.849   -80160.111    310.24215    20724    220766.21   0.83982993   -30.774839    22.203252    11.091077    421.26358    23.576893    22.227578    7.4058121    428.66939   -23012.927 
  495900   -92920.387   -80148.643    310.14518    20724    220636.35   -47.221706   -139.75553   -110.73917    108.82958    420.94985    23.578739    22.229318    7.5626767    428.51252   -23027.688 
  496000   -93001.459   -80127.825    312.61944    20724    220852.61   -14.307436    118.42385   -109.50287   -51.843286    420.97114    23.589694    22.239647    7.5520282    428.52317   -23045.047 
  496100   -93010.082   -80111.101    313.23496    20724    220962.75    24.281611     -61.5622    123.98779    10.419242    421.32902    23.585553    22.235742    7.3730889    428.70211    -23059.29 
  496200   -92977.004   -80165.991    311.09876    20724    220685.63    37.972385    44.146453   -167.33587    237.10657    421.04348     23.57875    22.229328     7.515862    428.55934   -23017.004 
  496300   -93057.682   -80152.069    313.39599    20724     220821.5   -82.676509    90.302509   -422.65631    84.324273    421.67738    23.568272     22.21945    7.1989089    428.87629   -23024.986 
  496400   -92890.265   -80146.687    309.46119    20724    220473.65   -6.9484626    240.48715   -10.713883   -250.61866    421.73705    23.548035    22.200372    7.1690728    428.90613   -23046.206 
  496500    -93046.79   -80171.664    312.65565    20724    220397.18     143.9434   -10.328433    378.19909    63.959545    421.45081    23.551945    22.204058     7.312197      428.763    -23032.34 
  496600   -92942.869   -80148.938    310.68394    20724    220629.31    63.601655   -23.116043   -59.970925    273.89193    421.70496    23.557243    22.209052    7.1851181    428.89008   -23045.316 
  496700   -93016.047   -80136.414    312.76509    20724    220585.91    71.816905    69.885183    185.03435   -39.468814    421.24457    23.567795       22.219    7.4153163    428.65988    -23062.83 
  496800   -93197.994   -80128.255    317.38158    20724    220459.04   -176.88028    31.254935   -288.49689   -273.39887    421.01732    23.567374    22.218603    7.5289382    428.54626   -23068.062 
  496900   -93069.591   -80124.948     314.3438    20724    220935.52   -50.853737    196.04332   -149.30562   -199.29891    421.44133    23.580957    22.231409    7.3169333    428.75827   -23059.295 
  497000   -93005.535   -80116.745    312.98747    20724    220702.15   -103.99364    45.518884   -175.16664   -182.33317    421.44911    23.568282     22.21946    7.3130464    428.76215   -23074.358 
  497100   -93055.668   -80149.648    313.40587    20724    220836.89    35.558544    90.880177   -290.10339    305.89885    421.45556    23.575295    22.226071    7.3098215    428.76538   -23047.262 
  497200   -93055.037   -80152.731    313.31569    20724    220977.24   -14.339245    209.86857   -104.84385   -148.04245    422.02304    23.566924     22.21818    7.0260788    429.04912   -23038.683 
  497300   -93049.199   -80136.741     313.5622    20724    221331.99    168.60132    127.86185    46.145863    331.79625    421.84103    23.590921    22.240803    7.1170825    428.95812   -23050.176 
  497400   -92869.949    -80140.45     309.1193    20724    220656.01   -15.861333   -162.75865   -130.17086    245.34551    421.19263    23.572992      22.2239     7.441283    428.63392    -23063.29 
  497500   -93076.555   -80130.458    314.37908    20724    220758.54   -54.592752   -85.074976   -223.29947    144.59619    421.31881    23.574937    22.225734    7.3781944    428.69701   -23072.811 
  497600   -92879.829   -80112.835    310.02983    20724    220888.85    223.01998     349.2572    334.78866   -14.985908    421.52321    23.576176    22.226902    7.2759945    428.79921   -23101.005 
  497700   -93047.273   -80141.155    313.40828    20724    220838.66    11.598095    276.29921   -55.696025    -185.8089    421.71978    23.568003    22.219196    7.1777087    428.89749   -23069.607 
  497800   -92990.498   -80103.067    312.95448    20724     221064.7   -117.85325    144.53673    -165.1746    -332.9219     421.8783    23.575631    22.226388    7.0984498    428.97675   -23090.962 
  497900   -92961.722   -80153.896    311.02137    20724    220879.73   -56.869245    44.464082   -147.20295   -67.868864    421.80016    23.567948    22.219145    7.1375175    428.93768   -23052.582 
  498000   -92961.072   -80194.273    310.02507    20724    220782.21    173.02387    -20.72101    186.16442    353.62822    421.95314    23.558473    22.210212    7.0610295    429.01417   -23030.067 
  498100   -92991.969   -80193.342    310.79798    20724    220770.99    75.537712    245.83743    65.632458   -84.856747    421.64508    23.566479     22.21776     7.215058    428.86014   -23029.083 
  498200   -92926.934   -80155.454    310.13875    20724    220626.28    22.762063   -65.786097    3.9668631    130.10542    421.63139    23.559136    22.210838     7.221907    428.85329   -23070.271 
  498300   -92961.151   -80150.293    311.09501    20724    220939.34    76.686634    145.23196   -15.717564    100.54551    421.68882     23.57424    22.225077    7.1931882    428.88201   -23070.424 
  498400     -92988.7   -80136.001    312.11105    20724    220631.31    3.0608001   -100.93773    405.47529   -295.35516     421.6725    23.558257    22.210008    7.2013516    428.87385   -23093.303 
  498500   -92957.625   -80139.913    311.26142    20724    220984.46    118.95767   -65.503598    337.37353     85.00308    421.49266    23.582133    22.232518    7.2912702    428.78393   -23082.622 
  498600   -93121.719   -80155.271    314.87331    20724    220973.84   -103.66722    19.824768   -328.62335   -2.2030806     421.7721    23.573753    22.224617    7.1515489    428.92365    -23062.19 
  498700   -92993.952   -80147.893     311.9498    20724    220890.89   -54.922685    154.40524   -319.02842  -0.14487432    421.64367    23.572917    22.223829     7.215765    428.85943   -23075.751 
  498800   -92910.154   -80115.093    310.71139    20724    221192.68    138.23976    109.92322    77.544963     227.2511    421.79703    23.584726    22.234962    7.1390869    428.93611   -23106.006 
  498900   -92936.441   -80107.111    311.54359    20724    220848.07    30.417654   -14.578393   -178.05717    283.88852     421.7998    23.566269    22.217562    7.1377019     428.9375    -23123.55 
  499000   -92934.382   -80103.933    311.57074    20724    220933.39   -36.480252    182.25687   -232.85488   -58.842744    422.00977    23.564957    22.216325    7.0327157    429.04248   -23125.172 
  499100   -93046.477   -80126.144    313.75345    20724    221021.52    47.888457    104.86616    382.79581    -343.9966    422.11611    23.566687    22.217956    6.9795459    429.09565    -23106.86 
  499200    -92938.78   -80175.015    309.95141    20724     220918.5    48.754679   -13.107408   -42.722715    202.09416    422.12499    23.560946    22.212543    6.9751033     429.1001   -23060.699 
  499300   -93044.836   -80149.334    313.15046    20724    221074.34   -23.711089    -44.55299   -195.59277    169.01249    422.06225    23.571007    22.222028    7.0064763    429.06872    -23080.77 
  499400   -92887.289   -80150.292    309.30138    20724    221022.77    65.438234    205.50036   -63.708514    54.522857     422.0622    23.568258    22.219437    7.0064991     429.0687   -23086.588 
  499500   -92898.277   -80082.963     311.2032    20724    221085.96    14.004001   -141.09962   -3.6842803    186.79591    422.34195    23.563819    22.215253    6.8666262    429.20857   -23150.165 
  499600   -92978.337   -80105.593    312.59781    20724    221072.44     152.7744    406.49393    276.31186   -224.48257    422.18223    23.567555    22.218775    6.9464849    429.12872   -23136.737 
  499700   -92974.707   -80133.893    311.82242    20724    221365.77    100.33432     1.341147    182.78759    116.87421    422.12458    23.584796    22.235029    6.9753109    429.09989   -23096.855 
  499800   -92827.382   -80075.372    309.66597    20724    221329.21   -79.106518   -166.08605   -6.5627128   -64.670791    422.08669    23.583907    22.234191    6.9942567    429.08094   -23150.304 
  499900   -92899.265   -80060.831    311.76464    20724    221602.39    33.384122     133.1639    199.65613   -232.66766    422.17442    23.596005    22.245596    6.9503902    429.12481   -23162.261 
  500000   -92865.983   -80072.508    310.67289    20724    221695.88    41.763336    5.7940897    163.11961   -43.623694    422.31561    23.597036    22.246568    6.8797936    429.19541   -23149.038 
Loop time of 61155.4 on 32 procs for 500000 steps with 20724 atoms

Performance: 1.413 ns/day, 16.988 hours/ns, 8.176 timesteps/s
96.7% CPU use with 32 MPI tasks x no OpenMP threads

MPI task timing breakdown:
Section |  min time  |  avg time  |  max time  |%varavg| %total
---------------------------------------------------------------
Pair    | 7516.1     | 11658      | 14609      |1993.6 | 19.06
Bond    | 0.71929    | 0.81128    | 1.0155     |   7.9 |  0.00
Kspace  | 10531      | 13490      | 17650      |1861.4 | 22.06
Neigh   | 9411       | 11342      | 13114      |1286.2 | 18.55
Comm    | 372.6      | 3093.2     | 8720.4     |5139.8 |  5.06
Output  | 4.9639     | 39.86      | 85.589     | 375.1 |  0.07
Modify  | 15764      | 21458      | 25801      |2011.8 | 35.09
Other   |            | 73.73      |            |       |  0.12

Nlocal:    647.625 ave 694 max 598 min
Histogram: 1 3 2 7 6 2 2 2 2 5
Nghost:    7484.34 ave 7822 max 7184 min
Histogram: 3 3 3 6 3 3 2 5 2 2
Neighs:    237464 ave 270190 max 212866 min
Histogram: 4 5 8 2 1 2 1 2 3 4
FullNghs:  474927 ave 540768 max 423225 min
Histogram: 3 5 9 2 0 3 1 2 3 4

Total # of neighbors = 15197659
Ave neighs/atom = 733.336
Ave special neighs/atom = 2
Neighbor list builds = 500000
Dangerous builds not checked
write_data production.R1
PPPM initialization ...
  extracting TIP4P info from pair style
WARNING: Using 12-bit tables for long-range coulomb (../kspace.cpp:316)
  G vector (1/distance) = 0.34587
  grid = 400 48 48
  stencil order = 5
  estimated absolute RMS force accuracy = 0.000402376
  estimated relative force accuracy = 1.21174e-06
  using double precision FFTs
  3d grid and FFT values/proc = 64980 38400
write_restart restartproduction.R1
PPPM initialization ...
  extracting TIP4P info from pair style
WARNING: Using 12-bit tables for long-range coulomb (../kspace.cpp:316)
  G vector (1/distance) = 0.34587
  grid = 400 48 48
  stencil order = 5
  estimated absolute RMS force accuracy = 0.000402376
  estimated relative force accuracy = 1.21174e-06
  using double precision FFTs
  3d grid and FFT values/proc = 64980 38400
Total wall time: 16:59:16
