LAMMPS (30 Jul 2016)
# Sets up LAMMPS simulation for transient melting of ice: TIP4P/Ice
# Ensure cold thermostats do not move
# Thinbox: 16x1x1
# Defects
# Order param l=2

#### setting MD parameters ####
units real
boundary p p p
atom_style full

# read ice box in restart file
### read the equilibrated NPT restart file

read_restart restart.state
  orthogonal box = (0.503806 0.027186 0.0256302) to (435.571 23.504 22.1589)
  32 by 1 by 1 MPI processor grid
  20736 atoms
  13824 bonds
  6912 angles
  2 = max # of 1-2 neighbors
  1 = max # of 1-3 neighbors
  1 = max # of 1-4 neighbors
  2 = max # of special neighbors


#### force field definition ####
pair_style      lj/cut/tip4p/long 2 1 1 1 0.1577 10.0
pair_modify	tail yes

kspace_style	pppm/tip4p 1.0e-6

bond_style	harmonic
angle_style	harmonic
dihedral_style	none
improper_style	none

bond_coeff	1 450.0 0.9572
angle_coeff	1 55.0 104.52


# reset pair coeff
pair_coeff	* * 0.0 0.0

#OO
pair_coeff	2 2 0.21085 3.1668
#OH
pair_coeff	* 1 0.0000 0.0000

neighbor        2.0 bin
neigh_modify    every 1 delay 1 check no

timestep	2.0
fix		constraints all shake 0.000001 20 0 b 1 a 1
  0 = # of size 2 clusters
  0 = # of size 3 clusters
  0 = # of size 4 clusters
  6912 = # of frozen angles

group water type 1 2
20736 atoms in group water

#*********** SIMULATION PARAMETER TO ADJUST ****************
#Box dimensions
variable lx equal lx
variable ly equal ly
variable lz equal lz

### Temperature of the hot and cold regions ####
variable thi equal 375
variable tlo equal 215
variable runpressure equal 0.986923


# Configuration equilibrated in density and temperature

# Define dx here

variable lx equal lx
variable ly equal ly
variable lz equal lz

variable xlo equal xlo
variable xhi equal xhi

variable boxcentre equal ${xlo}+(${xhi}-${xlo})/2
variable boxcentre equal 0.503805725432755+(${xhi}-${xlo})/2
variable boxcentre equal 0.503805725432755+(435.571394274575-${xlo})/2
variable boxcentre equal 0.503805725432755+(435.571394274575-0.503805725432755)/2

variable dx equal 2.0

#### ADD IN DEFECTS AT THE CENTRE OF THE HOT THERMOSTAT #####
variable y1 equal ${ly}/2.0
variable y1 equal 23.4768279408403/2.0
variable z1 equal ${lz}/2.0
variable z1 equal 22.1332396755616/2.0

region kill1 sphere ${boxcentre} ${y1} ${z1} 3
region kill1 sphere 218.037600000004 ${y1} ${z1} 3
region kill1 sphere 218.037600000004 11.7384139704201 ${z1} 3
region kill1 sphere 218.037600000004 11.7384139704201 11.0666198377808 3
delete_atoms region kill1 compress no bond yes mol yes
Deleted 12 atoms, new total = 20724
Deleted 8 bonds, new total = 13816
Deleted 4 angles, new total = 6908
############


variable thip equal ${thi}*2.0/3.0
variable thip equal 375*2.0/3.0
variable tlop equal ${tlo}*2.0/3.0
variable tlop equal 215*2.0/3.0
variable hbl equal ${boxcentre}-${dx}
variable hbl equal 218.037600000004-${dx}
variable hbl equal 218.037600000004-2
variable hbh equal ${boxcentre}+${dx}
variable hbh equal 218.037600000004+${dx}
variable hbh equal 218.037600000004+2

#***************************************************
## EQUILIBRATION PERIOD - to reach the steady state ###
#run 0

#reset the timestep to start your production run
reset_timestep 0

# define a group to perform averages
#group s1 type 1
###*** SYSTEM THERMOSTATTING: HOT and COLD regions ***###

fix NVE all nve
fix PRESS all press/berendsen aniso ${runpressure} ${runpressure} 500000 couple yz
fix PRESS all press/berendsen aniso 0.986923 ${runpressure} 500000 couple yz
fix PRESS all press/berendsen aniso 0.986923 0.986923 500000 couple yz


### Apply THERMOSTATS ###

#set up the "hot region" in the middle of the box
region hot block ${hbl} ${hbh} 0 ${ly} 0 ${lz} units box
region hot block 216.037600000004 ${hbh} 0 ${ly} 0 ${lz} units box
region hot block 216.037600000004 220.037600000004 0 ${ly} 0 ${lz} units box
region hot block 216.037600000004 220.037600000004 0 23.4768279408403 0 ${lz} units box
region hot block 216.037600000004 220.037600000004 0 23.4768279408403 0 22.1332396755616 units box


#set up the "cold region" at the left end of the box
#region cold block ${cbl} ${cbh} 0 ${ly} 0 ${lz} units box

#set up the "cold region" at the right end of the box
#region cold2 block ${h2bl} ${xhi} 0 ${ly} 0 ${lz} units box


#Cold regions  unification
#region cold union 2 cold1 cold2 units box

#Create group of cold molecules
####group cool_ice region cold
####group cool_ice include molecule

####compute cold_temp cool_ice temp
####fix cold_rescale water temp/rescale 1 ${tlo} ${tlo} 0.0001 1.0
####fix_modify cold_rescale temp cold_temp

#this calculates the temperature using only the atoms in the "hot region"
#compute hot_temp all temp/region hot

# calculate the temperature using only WATER in the "hot region"
compute hot_temp water temp/region hot

#this calculates the temperature using only WATER in the "cold region"
#compute cold_temp water temp/region cold


#set up a basic velocity rescale for the hot region WATER with thip
fix hot_rescale water temp/rescale 1 ${thip} ${thip} 1.0 1.0
fix hot_rescale water temp/rescale 1 250 ${thip} 1.0 1.0
fix hot_rescale water temp/rescale 1 250 250 1.0 1.0
#change the thermostat to only act on the "hot region"
#this is done by passing it the "hot temp" compute that we defined above
fix_modify hot_rescale temp hot_temp

#set up a basic velocity rescale for the cold region
#fix cold_rescale water temp/rescale 1 ${tlop} ${tlop} 1.0 1.0
#change the thermostat to only act on the "cold region"
#this is done by passing it the "cold temp" compute that we defined above
#fix_modify cold_rescale temp cold_temp

### Ensure MOMENTUM CONSERVATION ###

#ensure that linear momentum is conserved despite the "thermostatting" by velocity rescaling
fix cons_mom all momentum 1 linear 1 1 1


thermo 100
thermo_style custom step pe etotal temp atoms vol press pxx pyy pzz lx ly lz xlo xhi  f_hot_rescale

group ox type 2
6908 atoms in group ox
group hy type 1
13816 atoms in group hy
compute KE all ke/atom
variable TEMP atom c_KE*4186.8/(1.3806488*6.02214129)

compute cc1 all chunk/atom bin/1d x center 2 units box
#fix TPROFILE all ave/chunk 1 500 500 cc1 v_TEMP density/number file temp.dat
fix TPROFILEox ox ave/chunk 1 500 500 cc1 v_TEMP density/number file temp-ox.dat
fix TPROFILEhy hy ave/chunk 1 500 500 cc1 v_TEMP density/number file temp-hy.dat

compute orderparam ox orientorder/atom degrees 1 2 nnn 4 cutoff 3.5
compute cc2 ox chunk/atom bin/1d x center 2 units box
#fix ORDERPARAM all ave/chunk 1 500 500 cc2 c_orderparam[1] file order-param.dat
fix ORDERPARAM all ave/chunk 1 500 500 cc2 c_orderparam[1] file order-param.dat

restart 50000 config.restart

run 500000
PPPM initialization ...
  extracting TIP4P info from pair style
WARNING: Using 12-bit tables for long-range coulomb (../kspace.cpp:316)
  G vector (1/distance) = 0.34562
  grid = 405 48 48
  stencil order = 5
  estimated absolute RMS force accuracy = 0.000405588
  estimated relative force accuracy = 1.22142e-06
  using double precision FFTs
  3d grid and FFT values/proc = 67260 38880
Neighbor list info ...
  2 neighbor list requests
  update every 1 steps, delay 1 steps, check no
  max neighbors/atom: 2000, page size: 100000
  master list distance cutoff = 12.3154
  ghost atom cutoff = 12.3154
  binsize = 6.1577 -> bins = 71 4 4
Memory usage per processor = 12.7956 Mbytes
Step PotEng TotEng Temp Atoms Volume Press Pxx Pyy Pzz Lx Ly Lz Xlo Xhi hot_resc 
       0   -103701.74   -94955.112    212.40053    20724    226069.06      395.751     651.5802    100.08238    435.59044    435.06759    23.476828     22.13324   0.50380573    435.57139            0 
     100   -103657.25   -94686.561    217.84155    20724    226502.77    56.400848    157.21516    141.29774   -129.31035    435.17329    23.496483     22.15177   0.45095269    435.62425   -261.32794 
     200   -103557.09   -94620.326    217.01771    20724    226220.78   -13.688971   -115.52807    235.29981   -160.83865    435.17811    23.481722    22.137854   0.44854371    435.62666   -331.32259 
     300   -103666.47   -94609.217    219.94364    20724    226617.67     19.50978    20.151078    100.20382   -61.825554    435.29213    23.499233    22.154363     0.391534    435.68367   -336.64455 
     400   -103538.46   -94556.436    218.11681    20724    226375.65    38.713553    56.940379    179.57366   -120.37338    435.12458    23.491203    22.146792   0.47531046    435.59989    -394.7227 
     500   -103448.61   -94514.473    216.95396    20724    226432.82    139.26299    277.29021    211.91243   -71.413675    435.29656    23.489528    22.145213   0.38932013    435.68588   -440.81812 
     600   -103517.55   -94444.898    220.31752    20724    226536.67    23.411813   -58.651395    193.67937   -64.792536    435.43122     23.49128    22.146865   0.32198893    435.75321   -503.79421 
     700   -103480.15   -94407.402    220.31978    20724    226391.18  0.078866288   -108.40201    124.61379   -15.975184    435.24213    23.488836    22.144561   0.41653389    435.65867   -544.67383 
     800   -103456.81     -94386.3    220.26564    20724    226561.81   -57.876937   -29.811739   -119.54737   -24.271702    435.42816    23.492666    22.148172   0.32352206    435.75168   -560.87854 
     900   -103537.96   -94360.961    222.85143    20724    226428.56    17.573479    26.989089    181.46107   -155.72972    435.16666    23.492812    22.148309   0.45426853    435.62093   -593.06755 
    1000   -103471.42   -94357.762    221.31322    20724    226443.93     25.03011    16.269654    55.071843    3.7488324    435.28276    23.490476    22.146107   0.39621889    435.67898    -599.0732 
    1100   -103457.63   -94336.716    221.48952    20724    226424.01    14.470797    63.298252   -66.919085    47.033226    435.09313    23.494562    22.149958   0.49103567    435.58416   -618.90372 
    1200   -103449.52   -94292.012     222.3782    20724    226556.12   0.82770784   -111.37598    145.21825   -31.359154    435.42832    23.492367     22.14789   0.32344064    435.75176   -660.41216 
    1300   -103376.58   -94234.795    221.99628    20724     226501.1   -13.075154    131.60506   -47.821942   -123.00858    435.51614    23.487146    22.142967      0.27953    435.79567   -718.25309 
    1400   -103463.45   -94234.905    224.10319    20724    226418.17   -106.32279   -33.658421   -35.217454   -250.09251    435.32157    23.488093     22.14386   0.37681278    435.69839   -718.38673 
    1500   -103387.09   -94159.975    224.06849    20724    226586.73   -25.432292    61.005463    124.08043   -261.38276    435.39833    23.494763    22.150149   0.33843432    435.73677   -792.56671 
    1600   -103256.31   -94131.138    221.59285    20724    226486.75    42.245214    175.94136     239.9057   -289.11141    435.40311     23.48945     22.14514    0.3360473    435.73915   -825.89305 
    1700   -103319.92   -94101.306    223.86199    20724    226567.92    1.5677352   -78.575801     231.8714    -148.5924    435.51273    23.490702     22.14632    0.2812339    435.79397   -853.82491 
    1800   -103197.28   -94018.689    222.89016    20724    226613.37    36.552109    114.74583   -136.83568    131.74618    435.34579    23.497562    22.152787   0.36470655    435.71049   -937.19391 
    1900   -103256.26   -93985.978    225.11681    20724    226622.46    -17.45514   -155.71192   -174.80604    278.15254    435.16559    23.502898    22.157818    0.4548063    435.62039   -968.51751 
    2000   -103293.11   -93988.343    225.95421    20724    226607.08   -83.946046   -11.552723   -171.61004   -68.675374     435.2659    23.499392    22.154512   0.40464947    435.67055   -964.71435 
    2100   -103251.32   -94020.788    224.15137    20724    226642.11    20.866475    158.11615   -13.430195   -82.086534    435.34005    23.499207    22.154338   0.36757455    435.70763    -938.3616 
    2200   -103259.55   -93977.815    225.39482    20724    226777.25    20.459303    31.633708   -66.033582    95.777785    435.28589    23.507674    22.162321   0.39465615    435.68054   -980.15201 
    2300   -103163.71   -93938.046     224.0333    20724     226729.9   -10.176991    220.35185   -196.38995   -54.492876    435.45978    23.500526    22.155582    0.3077097    435.76749    -1016.777 
    2400   -103199.49   -93916.986    225.41348    20724    226853.91    15.602909   -104.14853    112.85281    38.104439    435.35075    23.509896    22.164415   0.36222435    435.71298    -1037.426 
    2500   -103198.91   -93945.302    224.71189    20724    226733.01    19.266593    8.5177847   -61.104619    110.38661    435.50725    23.499407    22.154526    0.2839773    435.79122    -1015.576 
    2600   -103275.53   -93949.529    226.46973    20724    226699.04     8.026521   -56.220519   -82.190336    162.49042    435.29424    23.503395    22.158286   0.39048244    435.68472   -1014.5063 
    2700   -103282.68   -93900.346    227.83779    20724    226808.39   -96.591266    23.349538   -105.69934   -207.42399     435.4605    23.504574    22.159398   0.30735196    435.76785   -1055.6195 
    2800   -103200.16   -93882.602    226.26484    20724    226770.55    94.249606    103.89459    287.72018   -108.86595    435.55246    23.500132     22.15521   0.26136994    435.81383   -1084.0848 
    2900   -103136.44   -93871.807    224.97946    20724     226680.7   -4.6733922    10.494249    13.584207   -38.098633    435.48342    23.497339    22.152577   0.29589208    435.77931   -1093.4041 
    3000    -103190.4   -93851.573    226.78132    20724    226700.66    2.3400961    123.47429   -138.97708    22.523083    435.48107    23.498437    22.153612   0.29706648    435.77813   -1113.9294 
    3100    -103162.9   -93812.395    227.06486    20724    226768.23   -6.3376255   -57.482296     7.918679    30.550741    435.53227    23.500557    22.155611   0.27146716    435.80373   -1152.0437 
    3200    -103103.2   -93771.495    226.60821    20724    226581.33    56.625298    94.490567   -36.120366    111.50569    435.34257    23.495988    22.151303   0.36631714    435.70888    -1201.786 
    3300   -103050.59   -93745.386    225.96487    20724     226781.4    56.337809    81.272034    153.45623   -65.714839    435.41747    23.504337    22.159175   0.32886344    435.74634   -1222.3066 
    3400   -102976.59   -93702.807    225.20167    20724    226686.24    36.282965    29.966939    421.40605   -342.52409    435.37342    23.500594    22.155646     0.350889    435.72431   -1265.7406 
    3500   -103106.15   -93707.036    228.24531    20724    226816.37   -81.644545   -42.341257   -100.46709   -102.12529    435.41761    23.506145    22.160879   0.32879433    435.74641   -1256.3371 
    3600   -103022.28   -93705.132    226.25482    20724    226659.83    6.0398787   -8.1754401   -17.118453    43.413529    435.20588    23.503748    22.158619   0.43466136    435.64054   -1264.9735 
    3700   -103062.37   -93643.985    228.71325    20724    226472.76   -83.882114   -96.035163    207.90456   -363.51574    435.15338    23.495464    22.150809   0.46091208    435.61429   -1328.8884 
    3800   -103058.52   -93626.167    229.05246    20724     226622.1   -5.7087685   -108.72756    397.93727   -306.33601    435.28256    23.499721    22.154823   0.39631804    435.67888    -1347.491 
    3900   -102966.42   -93595.521    227.56006    20724     226392.7     30.99832     219.9946   -59.521468   -67.478169    435.12437    23.492093    22.147631   0.47541388    435.59979   -1385.8146 
    4000   -103023.36   -93614.226    228.48863    20724    226563.97    18.603874   -68.193238    98.517086    25.487775    435.20511    23.498798    22.153952    0.4350458    435.64015   -1365.1405 
    4100   -102957.73     -93599.8    227.24523    20724    226647.99   -4.7685069    94.654161   -213.50703    104.54735    435.47592    23.495845    22.151169    0.2996417    435.77556   -1375.1692 
    4200   -103035.14   -93603.051    229.04588    20724    226639.08    31.410586   -99.832123    162.86522     31.19866    435.17314    23.503556    22.158438   0.45102815    435.62417   -1376.4537 
    4300   -102886.01   -93598.486    225.53548    20724    226575.43    172.77315    253.12506    192.87359    72.320804      435.271    23.497614    22.152836   0.40210157     435.6731   -1389.6863 
    4400   -103056.24   -93607.607    229.44767    20724    226714.79   -2.4965401    10.645122     283.1335   -301.26824    435.44628    23.500107    22.155187    0.3144613    435.76074   -1369.3938 
    4500   -102964.64   -93518.577    229.38544    20724    226672.28   -62.154592   -159.44563   -4.2844998   -22.733645    435.38715      23.4995    22.154614   0.34402667    435.73117   -1458.1038 
    4600   -102942.09   -93552.134    228.02291    20724    226621.12     37.99581   -9.2410665    360.82792   -237.59942    435.06659    23.505502    22.160273   0.50430547    435.57089   -1432.3627 
    4700   -102979.69   -93500.443    230.19127    20724    226744.53   -89.926839   -129.31749   -372.63691    232.17389    435.25708    23.506756    22.161455    0.4090575    435.66614   -1475.8533 
    4800   -102970.54   -93501.106    229.95291    20724    226680.38    -15.90948    40.046982   -246.95991    159.18449    435.23145    23.504123    22.158972   0.42187697    435.65332   -1479.8675 
    4900   -102897.07   -93473.312    228.84378    20724    226744.03    36.970494    14.878639   -74.014787    170.04763    435.56772    23.498347    22.153527   0.25374213    435.82146   -1507.6072 
    5000   -102868.89    -93448.48     228.7623    20724    226708.49   -29.442504   -168.98519    60.656402    20.001276    435.32752    23.502986    22.157901   0.37383976    435.70136   -1531.7388 
    5100   -102914.14   -93465.346    229.45171    20724    226845.29   -33.227795    -44.81016    26.824516   -81.697741    435.48815     23.50574    22.160497   0.29352498    435.78168   -1511.2174 
    5200    -102804.7   -93397.628    228.43851    20724    226837.07    23.540461    31.073216    109.06147   -69.513302    435.53789    23.503972     22.15883   0.26865401    435.80655   -1583.7026 
    5300   -102862.87   -93428.534    229.10051    20724     226718.6    47.485291    81.213868    89.689976    -28.44797    435.22108    23.506384    22.161104    0.4270607    435.64814     -1557.45 
    5400   -102964.83   -93440.928    231.27547    20724    226650.28   -62.557294   -50.867213   -24.267538   -112.53713    435.19476    23.503553    22.158435   0.44021755    435.63498   -1542.0009 
    5500   -102882.66    -93441.54    229.26519    20724    226709.49    24.613081   -31.491596    223.48736   -118.15652    435.24515    23.505262    22.160046   0.41502341    435.66018   -1542.7509 
    5600   -102848.24   -93437.235    228.53411    20724    226671.06    108.35177    209.74776    183.53256    -68.22499    435.35475    23.500311    22.155379   0.36022484    435.71498   -1554.0523 
    5700   -102929.76   -93460.999    229.93664    20724     226764.8   -72.645186    1.8006084   -48.250664    -171.4855    435.22214    23.508751    22.163335   0.42653059    435.64867   -1521.5762 
    5800   -102916.97    -93416.45    230.70782    20724    226791.85    24.741058    203.40446   -23.303029   -105.87826    435.39706     23.50543    22.160205   0.33906911    435.73613   -1571.5069 
    5900   -102882.34   -93368.032    231.04257    20724     226743.1   -59.259711   -204.13858    49.976025   -23.616573    435.38127    23.503329    22.158224   0.34696698    435.72823   -1617.2566 
    6000   -102805.78   -93373.105    229.06021    20724    226763.89    49.975376   -119.36365    230.86165    38.428123    435.30737    23.506402    22.161121   0.38391449    435.69129   -1617.9754 
    6100   -102845.27    -93343.61    230.73542    20724    226882.08   -52.525791    9.4741226   -303.15497    136.10348    435.46681    23.508222    22.162837   0.30419468    435.77101   -1640.1659 
    6200   -102844.98   -93390.286    229.59502    20724    226779.55   -42.492515   -82.403743   -70.380647    25.306845    435.60555    23.499167      22.1543   0.23482621    435.84037   -1599.3493 
    6300   -102921.18   -93381.611    231.65593    20724    226878.92   -77.947833   -188.30045    32.680739   -78.223787    435.59608     23.50457    22.159394   0.23955783    435.83564   -1605.0885 
    6400   -102881.87   -93312.165    232.38795    20724    226842.23   -39.891553   -177.76531    -120.9616    179.05225    435.70421    23.499752    22.154852   0.18549393    435.88971   -1678.1117 
    6500   -102938.06   -93359.861     232.5941    20724    226783.33   -15.098228   -34.439674   -25.072493    14.217483    435.49076    23.502459    22.157404   0.29222209    435.78298   -1635.1112 
    6600   -102918.27   -93357.059    232.18145    20724    226702.75   -57.449309    16.277127   -42.937269   -145.68779    435.57606    23.495982    22.151298    0.2495702    435.82563   -1637.9914 
    6700   -102962.67   -93352.229    233.37697    20724    226773.17   -15.637585    54.578547    -56.02228   -45.469022    435.61632    23.498545    22.153714   0.22943928    435.84576   -1644.2072 
    6800   -102806.67   -93325.182    230.24552    20724    226715.68   -29.026283   -57.650392    48.960179   -78.388637    435.43198    23.500539    22.155594   0.32160982    435.75359   -1669.2973 
    6900   -102889.11   -93342.241    231.83326    20724     226918.5     26.24189    5.7515072    105.77342    -32.79926    435.60432    23.506398    22.161117   0.23544047    435.83976   -1651.9392 
    7000   -102869.85    -93317.84    231.95816    20724    226655.71   -35.553417   -148.64627     71.45883   -29.472813    435.22193      23.5031    22.158009   0.42663303    435.64857   -1682.9724 
    7100   -102898.58   -93311.423    232.81162    20724    226801.87    11.410552   -5.4093701    9.7058987    29.935127    435.50941    23.502917    22.157835   0.28289351    435.79231   -1687.9363 
    7200   -102880.33   -93283.446    233.04772    20724    226626.39   -86.950945   -73.024712   -327.78064    139.95252    435.54473     23.49287    22.148363   0.26523526    435.80996   -1716.7042 
    7300   -102806.93   -93255.018     231.9558    20724    226871.54    50.182513    7.1071933    345.31991   -201.87957    435.58209    23.504565    22.159389   0.24655513    435.82864   -1745.3428 
    7400   -102794.38   -93240.509    232.00327    20724    226864.29    -10.46243   -86.012077    140.68725   -86.062466    435.40461    23.508979    22.163551   0.33529686     435.7399   -1758.6278 
    7500   -102719.93   -93207.303    231.00179    20724    226790.51    6.3834777   -24.386375   -251.62372    295.16052    435.54072    23.501483    22.156484   0.26724037    435.80796   -1794.0591 
    7600   -102648.87   -93214.516    229.10111    20724    226607.19     6.114546   -216.43437    299.39598   -64.617976     435.2672    23.499363    22.154485    0.4040016     435.6712   -1792.3428 
    7700   -102735.04   -93184.591    231.92021    20724    226828.77   -31.942066   -324.37159    219.87265    8.6727392    435.48111    23.505074    22.159869   0.29704553    435.77815   -1818.3267 
    7800   -102818.38   -93173.595    234.21096    20724    226641.95   -55.344447    18.525349    -31.19736   -153.36133    435.30883    23.500041    22.155125   0.38318393    435.69202   -1833.8532 
    7900   -102814.55   -93164.178    234.34675    20724    226703.32    -40.70864   -264.36325    19.548487    122.68884    435.41612    23.500327    22.155394   0.32954249    435.74566   -1844.3819 
    8000   -102679.33   -93117.314    232.20118    20724    226931.45   -81.326339   -144.58161   -241.39333    141.99593    435.39619    23.512686    22.167046   0.33950613    435.73569   -1882.1969 
    8100   -102744.12   -93156.145    232.83146    20724    226876.35    14.448506   -62.150416   -32.955969     138.4519    435.45138    23.508342     22.16295   0.31191226    435.76329   -1852.6195 
    8200   -102738.77   -93117.426    233.64187    20724    226730.65   -45.716209   -72.981206    71.485695   -135.65311    435.35647    23.503353    22.158247   0.35936627    435.71583   -1892.1803 
    8300   -102639.47    -93086.71    231.97639    20724    226781.36    4.7547577    95.468415    78.312438   -159.51658    435.68779    23.497043    22.152297   0.19370642    435.88149    -1924.125 
    8400    -102684.6   -93046.297    234.05353    20724    226758.66   -10.954916   -21.809877    12.098696   -23.153567    435.38926     23.50392    22.158781   0.34296782    435.73223   -1966.5288 
    8500   -102613.29   -93006.182    233.29612    20724    226850.93    102.23515   -68.622952    53.953479    321.37493    435.56502    23.503958    22.158817   0.25508951    435.82011    -2011.301 
    8600   -102605.14   -93004.799    233.13185    20724    226957.82   -43.619943   -50.690902    373.54543   -453.71435     435.6089     23.50831     22.16292   0.23314776    435.84205   -2002.0949 
    8700   -102724.31   -93009.642    235.90795    20724    226858.85   -56.350186    140.98599   -236.33898   -73.697564    435.52205    23.505528    22.160297   0.27657678    435.79862   -2002.4902 
    8800   -102685.61   -92986.047    235.54118    20724    226836.69    50.230117    21.712702   -129.04279    258.02044    435.39419    23.507831    22.162468   0.34050646    435.73469   -2031.9991 
    8900   -102462.13    -92969.77    230.50951    20724       226736   -36.083689    -43.53189      -36.179   -28.540178    435.39103    23.502698    22.157629   0.34208672    435.73311   -2045.1075 
    9000   -102641.86   -92949.973    235.35479    20724    226926.77   -16.771639   -55.375906   -69.873357    74.934346    435.52257    23.509032    22.163601   0.27631644    435.79888   -2062.7237 
    9100   -102520.91   -92979.248    231.70673    20724    226815.99    48.177805    260.22928    139.23087   -254.92674    435.45939    23.504998    22.159797    0.3079062    435.76729    -2041.924 
    9200   -102644.42   -92966.472    235.01629    20724    226810.37    -92.62511   -159.13713   0.48743906   -119.22564    435.29373    23.509179    22.163739   0.39073457    435.68447   -2049.4017 
    9300   -102611.54   -92970.338    234.12396    20724    226757.23    54.344876    244.10717   -33.545011    -47.52753    435.42147    23.502976    22.157892   0.32686444    435.74834   -2054.3346 
    9400   -102523.69   -92949.099    232.50645    20724    226935.17    49.794151    77.889161    12.719271     58.77402    435.47779    23.510676    22.165151    0.2987062    435.77649   -2070.2553 
    9500   -102600.73   -92970.508    233.85741    20724    226622.98   -56.912899    2.3775077   -285.59237    112.47616    435.32532    23.498613    22.153778   0.37493856    435.70026   -2055.1994 
    9600   -102544.48    -92923.71    233.62778    20724    226751.63   -6.5574418    -145.3847    -55.07642    180.78879     435.1985    23.508706    22.163294   0.43835175    435.63685   -2100.9168 
    9700   -102503.67   -92906.763    233.04831    20724    226734.62    52.791814    107.30978     12.66909    38.396575    435.22137    23.507207     22.16188   0.42691488    435.64829   -2122.5237 
    9800   -102607.45   -92882.952     236.1468    20724    226779.06   -82.014167   -25.376311    50.905793   -271.57198    435.13407    23.511869    22.166275   0.47056662    435.60463   -2139.7291 
    9900   -102627.66   -92913.286    235.90082    20724    226559.68   -52.250062   -79.843949   -82.101274     5.195037    435.27127     23.49679    22.152059   0.40196443    435.67324   -2118.1793 
   10000   -102564.47   -92884.058    235.07626    20724    226748.85    16.565603    93.093633     -104.229    60.832178    435.33765    23.504805    22.159616   0.36877559    435.70642   -2144.8981 
   10100    -102553.1   -92934.782    233.56826    20724     226736.9   -65.173631   -90.654492   -344.76849    239.90209     435.3028    23.505126    22.159918   0.38619873      435.689   -2092.1387 
   10200   -102546.79   -92904.282    234.15587    20724    226581.28   -28.342783   -249.64948   -224.17327     388.7944    435.27578    23.497788       22.153   0.39971237    435.67549   -2130.1678 
   10300   -102537.57   -92917.452    233.61207    20724     226717.8    92.729539    84.064904    154.28853    39.835188    435.30382    23.504108    22.158959   0.38568864    435.68951   -2120.5594 
   10400   -102508.49   -92912.728    233.02057    20724     226515.3    57.092532    35.518015    223.87198   -88.112405    435.29822    23.493761    22.149203   0.38848954    435.68671   -2129.9215 
   10500    -102508.4   -92883.003    233.74012    20724    226711.51   -65.091363    46.822539    -174.9375   -67.159126    435.26328    23.504877    22.159684   0.40596112    435.66924   -2150.3573 
   10600   -102684.79   -92897.221    237.67838    20724    226668.81   -85.432256   -17.762338    9.3808435   -247.91527    435.27733    23.502284    22.157239   0.39893737    435.67626   -2138.5976 
   10700   -102602.27   -92843.968    236.96767    20724    226576.39   -51.044916   -89.456767   -201.88538     138.2074     435.3206    23.496324     22.15162   0.37730103     435.6979   -2195.1894 
   10800   -102577.43    -92863.63    235.88707    20724     226640.9   -81.315493   -69.552949   -259.58191    85.188379    435.46166    23.495863    22.151185   0.30676963    435.76843   -2173.4836 
   10900   -102605.74   -92854.156    236.80451    20724    226701.14   -58.944728    10.646611   -292.26966    104.78887    435.49332    23.498131    22.153323   0.29094174    435.78426    -2181.957 
   11000    -102482.2   -92803.963    235.02341    20724    226687.55    89.282289   -19.594975    347.14522   -59.703376    435.29152    23.502873    22.157794   0.39184183    435.68336   -2241.7168 
   11100   -102546.26   -92809.374    236.44756    20724    226874.22   -84.838105   -125.71687    228.79676   -357.59421    435.45269    23.508196    22.162813   0.31125665    435.76394    -2222.018 
   11200   -102415.59    -92810.35    233.25072    20724    226715.32    47.377406    96.110951   -150.04646    196.06773    435.32577    23.503388     22.15828   0.37471659    435.70048   -2233.5614 
   11300    -102513.6   -92818.574    235.43116    20724    226783.44    97.513552    91.796064    68.956935    131.78766    435.33557    23.506654    22.161359   0.36981354    435.70539   -2228.6411 
   11400    -102502.4   -92791.584    235.81454    20724    226593.76     -88.3806   -152.40656   -147.19643    34.461188     435.2303    23.499663    22.154767   0.42244794    435.65275    -2250.952 
   11500   -102508.54    -92741.64    237.17656    20724    226731.65     53.51494   -6.4060046    69.908954     97.04187    435.34468    23.503724    22.158596   0.36525994    435.70994   -2306.4127 
   11600   -102461.45   -92799.397    234.63049    20724     226628.8     93.80438    45.648972   -45.620193    281.38436    435.24276    23.501143    22.156163   0.41621864    435.65898   -2255.0715 
   11700   -102444.91   -92758.241    235.22815    20724    226663.36    13.024921   -51.971538  -0.26277489    91.309075    435.15823    23.505218    22.160005   0.45848668    435.61671   -2291.4633 
   11800   -102489.56   -92794.644    235.42831    20724    226634.95   -14.337598   -121.26348     52.23891    26.011772    435.06733      23.5062     22.16093   0.50393272    435.57127   -2254.8542 
   11900   -102416.47   -92777.036     234.0812    20724    226723.61    81.095428   -3.2548552    354.69835   -108.15721    435.32084     23.50395     22.15881   0.37718227    435.69802   -2274.8428 
   12000   -102371.74   -92740.245    233.88828    20724    226559.34   -52.748988   -35.050052    147.57254   -270.76946    435.16605    23.499612     22.15472   0.45457691    435.62062    -2310.368 
   12100      -102425   -92739.044    235.21085    20724    226679.03     47.57168    121.97123   -161.21374    181.95755    435.34566    23.500969       22.156   0.36477205    435.71043   -2316.7797 
   12200   -102369.34    -92704.38    234.70105    20724    226510.76    8.3727879    2.2560171   -218.44454    241.30689    435.22532    23.495493    22.150836   0.42493806    435.65026    -2355.092 
   12300   -102379.93   -92688.367    235.34698    20724    226717.24    11.697566   -126.05466   -59.508517    220.65588    435.40279    23.501408    22.156413   0.33620296      435.739   -2367.0913 
   12400    -102467.1   -92689.006    237.44821    20724    226802.89    21.103464   -5.2617214   -79.089391     147.6615    435.41469    23.505526    22.160295   0.33025562    435.74494   -2365.5117 
   12500   -102439.03   -92695.456    236.61012    20724    226736.94   -71.090569   -36.030538   -117.56674   -59.674424    435.30461     23.50508    22.159875    0.3852962     435.6899   -2358.0045 
   12600   -102465.87   -92693.887    237.29991    20724    226650.27   -79.236597   -194.24253    -110.3719    66.904632    435.24802    23.502114    22.157079   0.41358959    435.66161    -2362.626 
   12700   -102355.26   -92631.383    236.13163    20724    226679.12    7.0248126    3.7141933    37.886737   -20.526493     435.0849    23.508016    22.162643   0.49514956    435.58005   -2429.7081 
   12800   -102427.01   -92644.924    237.54532    20724     226776.8   -4.5103641     81.03085    124.16978   -218.73172     435.2704    23.508069    22.162693   0.40240148     435.6728   -2412.5489 
   12900   -102358.85   -92665.826    235.38257    20724    226679.03   -14.241943    123.16738   -73.998575   -91.894635    435.07789      23.5082    22.162817   0.49865381    435.57655    -2396.264 
   13000   -102415.83   -92664.438    236.79993    20724     226682.8   -11.738733    27.462269   -201.82655    139.14808    435.27647    23.503033    22.157945    0.3993665    435.67583   -2399.4595 
   13100   -102318.39   -92645.594    234.89123    20724    226596.61    9.1153195    -163.4639    32.290712    158.51915    435.33204    23.497064    22.152318   0.37158089    435.70362   -2421.8628 
   13200   -102393.34   -92625.838    237.19101    20724    226853.64    35.024339   -125.66035    160.69447      70.0389    435.45148    23.507163    22.161838   0.31186195    435.76334   -2438.6647 
   13300   -102328.81   -92618.937    235.79166    20724    226924.17   -62.840565    12.039953   -23.165036   -177.39661    435.47425    23.510201    22.164703   0.30047502    435.77472   -2438.8033 
   13400    -102332.1   -92602.155    236.27901    20724    226842.77    20.558207    180.30471   -138.05264    19.422551    435.37397    23.508691    22.163279   0.35061417    435.72459   -2464.6273 
   13500   -102366.78   -92583.034    237.58554    20724    226881.11  -0.49723253   -164.13298   -161.57196    324.21324    435.22259    23.514766    22.169007    0.4263072    435.64889   -2482.2637 
   13600   -102304.96   -92594.682    235.80147    20724    226832.88     63.25236    107.61736   -183.89755    266.03727    435.38428    23.507901    22.162534   0.34546239    435.72974   -2475.1568 
   13700   -102278.85   -92527.231    236.80537    20724     226941.3   -42.708693   -94.399994    -40.58652    6.8604348    435.35921    23.514195    22.168468   0.35799468    435.71721   -2537.0749 
   13800   -102405.53   -92514.902    240.18096    20724    227031.29   -47.374215   -139.88719    22.474377   -24.709836    435.51857    23.514553    22.168806   0.27831423    435.79689   -2547.9354 
   13900   -102287.18   -92555.218    236.32793    20724    226924.35    41.620626    50.476089    47.604379    26.781412    435.69911    23.504143    22.158992   0.18804453    435.88716   -2513.2218 
   14000   -102273.05   -92534.744    236.48207    20724     226813.1    43.542142   -29.808217   -15.773982    176.20862    435.60979     23.50079    22.155831   0.23270519    435.84249   -2538.3902 
   14100   -102294.52   -92512.781    237.53672    20724    226825.85   -5.2097215   -152.42947    25.364378    111.43593    435.49873    23.504447    22.159278   0.28823286    435.78697   -2558.5695 
   14200   -102267.72   -92483.454    237.59808    20724    226747.27   -28.815238    120.88513    47.460607   -254.79145    435.39397    23.503202    22.158105   0.34061317    435.73459   -2591.3125 
   14300   -102249.69   -92434.482     238.3495    20724    226645.99   -69.663042    34.658434   -9.5860485   -234.06151    435.38248    23.498263    22.153448   0.34636053    435.72884   -2641.1684 
   14400   -102198.77   -92430.216    237.21669    20724    226660.75    -4.003747    28.932933   -216.22169    175.27752    435.20838    23.503728      22.1586   0.43341103    435.64179   -2648.1734 
   14500   -102149.95   -92437.591     235.8519    20724    226650.37    85.286346    210.98081   -99.577388    144.45561    435.13386    23.505202     22.15999   0.47067166    435.60453    -2645.267 
   14600   -102216.37   -92376.884    238.93919    20724    226741.79   -74.802638   -170.83568   -133.91074    80.338511     435.4095    23.502499    22.157442   0.33284803    435.74235   -2699.3662 
   14700    -102227.4   -92406.851    238.47932    20724    226460.79    26.854425   -92.882779    135.16853    38.277527    435.11451    23.495892    22.151213   0.48034445    435.59486   -2681.4871 
   14800   -102177.93   -92369.858    238.17625    20724     226657.4    30.423018    13.520093    150.61449    -72.86553    435.11841    23.505984    22.160727   0.47839424    435.59681    -2715.412 
   14900   -102222.82   -92394.116    238.67721    20724    226468.71   -26.992942   -40.047235    162.68889   -203.62048    435.13978    23.495621    22.150957   0.46770986    435.60749   -2693.4975 
   15000   -102245.56   -92372.433    239.75602    20724    226570.61   -59.538338   -146.34577   -100.19929    67.930042    435.26291    23.497582    22.152806   0.40614558    435.66905   -2712.2914 
   15100   -102178.83   -92325.231    239.28176    20724    226533.93   -30.396026    131.41894   -2.3228576   -220.28416    435.06239    23.501094    22.156117   0.50640439     435.5688   -2760.7765 
   15200   -102081.03   -92274.977     238.1272    20724    226575.26    12.182816    -53.15697    109.49578   -19.790363    435.14216    23.501083    22.156107   0.46652102    435.60868   -2813.9173 
   15300   -102133.49   -92271.553    239.48425    20724    226574.51    16.216724    52.402686    85.916109   -89.668623    435.00662    23.504705    22.159522   0.53429219    435.54091   -2818.6384 
   15400   -102125.67   -92280.256    239.08309    20724    226528.02    12.767481    118.70401    55.896215   -136.29779     435.0255    23.501783    22.156767   0.52484891    435.55035   -2811.8874 
   15500   -102035.43   -92275.991    236.99539    20724    226435.13     26.93014   -66.337757    -94.30581    241.43399    434.87911    23.500919    22.155952    0.5980455    435.47715   -2818.2505 
   15600   -102129.22   -92287.257    238.99914    20724    226484.09   -27.333511   -86.128958   -201.62774    205.75616    434.78763    23.505932    22.160678   0.64378671    435.43141    -2804.419 
   15700   -102130.75   -92220.597    240.65523    20724    226475.49    4.8495568   -156.21168    130.26622    40.494131    434.88475    23.502861    22.157783   0.59522281    435.47998   -2875.2067 
   15800   -102009.83   -92230.572     237.4766    20724    226530.12    16.874992    30.969232    169.57045    -149.9147    435.09397    23.500043    22.155126   0.49061529    435.58458   -2862.0744 
   15900   -101976.09   -92218.878    236.94109    20724    226546.15    33.437741   -165.71948    119.25453    146.77817    434.99072    23.503663    22.158539   0.54223887    435.53296   -2876.2752 
   16000   -102055.45   -92226.773    238.67665    20724    226488.62   -10.706328   -149.65336   -232.72445    350.25882    434.78877    23.506136    22.160871   0.64321412    435.43199   -2867.6093 
   16100   -101996.11   -92194.688    238.01465    20724    226655.46    30.877382   -114.66773   -70.518208    277.81809    435.03151    23.508231    22.162845   0.52184285    435.55336   -2898.8502 
   16200   -102087.19   -92197.585    240.15613    20724    226529.44    20.518584   -44.159528    165.69322   -59.977937    434.92734    23.504509    22.159337   0.57393201    435.50127   -2901.8687 
   16300    -102043.2    -92203.93    238.93383    20724    226634.67    -26.59826   -81.568908   -169.23386    171.00799    434.91457    23.510313    22.164808     0.580313    435.49489    -2889.666 
   16400   -102177.22    -92212.56    241.97881    20724     226416.4   -2.2083542    22.823394    151.75631   -181.20477    434.96206    23.497706    22.152923   0.55656879    435.51863   -2890.7099 
   16500   -102136.57   -92215.557    240.91894    20724    226435.99    46.057629    11.395869    93.810838    32.966179    434.85669     23.50157    22.156565   0.60925631    435.46594   -2890.4743 
   16600   -101962.91   -92195.171    237.19687    20724    226582.69    36.210061    80.366656    77.681906   -49.418379    434.79606     23.51082    22.165287   0.63956924    435.43563   -2906.2913 
   16700   -101969.21   -92149.938    238.44815    20724    226537.07 -0.043380814    95.134083   -474.10278    378.83855    434.62079    23.513193    22.167524   0.72720482      435.348   -2951.5119 
   16800   -101946.91   -92145.969    238.00303    20724    226269.19    54.570399    65.531349   -229.08266     327.2625    434.65981    23.498231    22.153418   0.70769348    435.36751    -2966.529 
   16900   -102043.52   -92119.972    240.98054    20724    226504.57   -40.802967   -11.878899   -41.821061   -68.708942    434.83041    23.505838     22.16059   0.62239671     435.4528   -2982.7279 
   17000   -101971.17   -92091.445    239.91637    20724    226332.41   -66.968844   -231.24637   -104.54886    134.88869    434.64783    23.501838    22.156818   0.71368346    435.36152   -3017.5879 
   17100   -101919.45   -92067.289    239.24694    20724    226319.22    39.445641    135.00459   -104.92882    88.261148    434.41922    23.507336    22.162002    0.8279891    435.24721   -3046.5479 
   17200   -101951.56    -92070.45    239.94983    20724    226581.55   -48.544905    35.457172   -222.94015    41.848262    434.72924    23.512568    22.166934   0.67297923    435.40222   -3033.3745 
   17300   -101960.37   -92080.891     239.9102    20724    226420.31    78.102398    -6.233872      97.0154    143.52566    434.51213    23.510072    22.164581   0.78153305    435.29367    -3036.456 
   17400   -102010.13   -92092.824    240.82877    20724    226380.51   -82.103807   -216.09924    49.446274   -79.658455    434.47567    23.508992    22.163563   0.79976686    435.27543   -3016.9496 
   17500   -102026.26   -92085.544    241.39726    20724    226494.74   -30.193241   -5.8023822   -149.94739    65.170048    434.55259    23.512841    22.167192   0.76130349     435.3139   -3026.0191 
   17600   -101955.25   -92092.876    239.49492    20724    226520.94    50.907836   -80.505288      184.837    48.391793    434.69958    23.510225    22.164726    0.6878118    435.38739   -3020.8587 
   17700   -101952.01   -92100.981    239.21936    20724    226300.77    44.504608   -163.55085   -9.5587141    306.62339    434.59984    23.501493    22.156493   0.73768131    435.33752   -3018.7607 
   17800   -101999.89   -92123.588    239.83323    20724    226325.59   -13.319962   -35.364196    156.13117   -160.72686     434.4063    23.508016    22.162643   0.83444862    435.24075   -2996.1748 
   17900   -101987.48   -92074.161    240.73208    20724    226211.37     37.46261    151.47449   -56.489246    17.402589     434.3911    23.502495    22.157438   0.84205077    435.23315   -3052.1817 
   18000   -102020.85   -92113.708    240.58197    20724    226206.56   -23.401368   -267.07328   -65.022041    261.89122    434.45414     23.50054    22.155595    0.8105318    435.26467   -3011.2306 
   18100   -101975.14   -92093.543    239.96175    20724    226109.16    47.118364    134.45522   -54.529024    61.428891    434.28906    23.499945    22.155034   0.89306997    435.18213   -3039.2218 
   18200   -101937.39   -92070.496    239.60477    20724    226294.83    6.4580049    87.307234    121.88485   -189.81807    434.32613    23.508588    22.163182   0.87453368    435.20067   -3056.5361 
   18300   -101935.85   -92014.954    240.91601    20724    226158.59   -86.262507   -12.717619    180.36811   -426.43801     434.1677    23.505798    22.160552   0.95374805    435.12145   -3111.4159 
   18400   -101976.19   -92054.269    240.94088    20724    226088.58   -30.950012   -210.33335    125.51653   -8.0332235    434.71246    23.487429    22.143234   0.68137079    435.39383   -3079.3105 
   18500   -101905.72   -92010.076    240.30275    20724    226226.26    25.546997   -40.382289   -96.043589    213.06687    434.34252    23.504583    22.159406    0.8663377    435.20886   -3123.0151 
   18600   -101900.76   -91969.108    241.17715    20724    226360.18   -15.033479   -219.68882    123.65523    50.933152    434.46998     23.50809    22.162713   0.80260939    435.27259     -3160.18 
   18700   -101860.02   -91975.465    240.03353    20724    226323.71    60.650345     150.5213   -138.74698    170.17672    434.38782    23.508419    22.163023   0.84369136    435.23151   -3158.3153 
   18800   -101909.94   -91990.834    240.87244    20724    226244.74   -30.206904    32.219822    63.226046   -186.06658    434.24669    23.508136    22.162756   0.91425406    435.16095   -3141.4507 
   18900   -101932.75   -91986.173    241.53956    20724    226313.27   -18.194648    53.543749   -125.07221    16.944518    434.37693    23.508171    22.162789   0.84913267    435.22607   -3147.6866 
   19000   -101901.48    -92045.99    239.32766    20724    226488.94     74.20807    40.158181    45.409833    137.05619    434.49291    23.514154     22.16843   0.79114595    435.28405   -3086.8729 
   19100   -101952.94   -91982.881    242.10989    20724    226370.03   -65.695421    29.207962   -156.44887   -69.845351    434.55111    23.506407    22.161126    0.7620449    435.31316   -3151.5127 
   19200   -101962.54   -91993.559    242.08367    20724    226409.15    -25.82812    20.270689   -151.36913    53.614083    434.69825    23.504459    22.159289   0.68847454    435.38673   -3140.5269 
   19300   -101903.07   -91982.969    240.89669    20724    226449.56    58.589924   -59.753666    114.07305    121.45039    434.87095    23.501888    22.156866   0.60212701    435.47307   -3155.4662 
   19400   -101895.47   -91958.245    241.31247    20724    226690.18   -13.247177   -58.685963    266.16899   -247.22456    435.06232    23.509199    22.163758   0.50643876    435.56876   -3171.6139 
   19500   -101871.46   -91917.278    241.72443    20724    226671.71   -44.771169    49.705334   -357.75659    173.73775    434.96584    23.510849    22.165313   0.55468082    435.52052   -3208.2916 
   19600   -101811.41   -91908.499    240.47932    20724    226385.55   -38.312062    94.058678    82.735585   -291.73045    434.85382    23.499029     22.15417   0.61068857    435.46451    -3227.174 
   19700   -101887.71   -91896.108     242.6331    20724    226465.02   -38.089276    37.147814   -182.96765    31.552011    434.83328    23.503708    22.158582   0.62095991    435.45424   -3240.4849 
   19800   -101893.47   -91879.938    243.16549    20724    226474.49   -64.079921   -67.243005   -216.86102    91.864265     435.0487     23.49838    22.153558    0.5132493    435.56195   -3253.5607 
   19900   -101762.93   -91851.747    240.68023    20724    226572.67    40.650001    18.037186   -121.50558     225.4184    434.79155    23.510422    22.164912   0.64182571    435.43337   -3287.4807 
   20000   -101800.42   -91851.437    241.59815    20724    226309.52   0.65148495   -37.402699    -27.17985    66.537004    434.69742    23.499309    22.154434   0.68889126    435.38631   -3295.1991 
   20100   -101862.64   -91879.814    242.42001    20724    226471.25   -68.937701   -57.767287    268.89658    -417.9424    434.77972     23.50548    22.160252   0.64773815    435.42746   -3258.2412 
   20200   -101759.49   -91857.189    240.46457    20724    226399.42   -23.970415   -142.52185    247.26579   -176.65518    434.75774    23.502346    22.157297   0.65872784    435.41647   -3286.5461 
   20300   -101814.99   -91848.709    242.01815    20724     226370.4   -18.030797   -7.7486733    161.86412   -208.20784    434.44235    23.509368    22.163918   0.81642259    435.25878   -3298.0572 
   20400   -101786.95   -91828.247    241.83419    20724    226469.39    49.871603    335.87018   -177.26905   -8.9863204    434.54811    23.511646    22.166065   0.76354563    435.31165    -3320.227 
   20500   -101788.87   -91798.055    242.61386    20724    226397.64   -29.340271   -11.361036   -122.21436    45.554578    434.72929    23.503022    22.157935   0.67295731    435.40224   -3349.9683 
   20600    -101859.9   -91794.845     244.4167    20724    226300.64   -3.2311706   -129.54771     195.7179   -75.863701    434.55609    23.502669    22.157602   0.75955615    435.31564   -3359.8054 
   20700   -101833.36   -91799.738    243.65342    20724     226425.5   -25.348515    -215.2814    184.95446   -45.718597    434.82729     23.50182    22.156801    0.6239552    435.45124   -3349.2998 
   20800   -101691.63   -91740.165    241.65835    20724    226462.32    29.204131    81.841788   -235.91108    241.68169    434.79636    23.504566     22.15939   0.63941888    435.43578   -3410.6426 
   20900   -101722.32   -91730.471    242.63904    20724    226447.27    9.8255442    120.61749   -63.265245   -27.875608      434.791     23.50393    22.158791    0.6421021     435.4331   -3420.9981 
   21000    -101779.9   -91730.913    244.02648    20724    226364.73   -91.100649   -219.76726   -66.999462    13.464771    434.74298    23.500944    22.155976    0.6661116    435.40909   -3420.3542 
   21100   -101799.04   -91727.859    244.56555    20724    226432.13   -81.260001   -101.97815    95.445069   -237.24692    434.43409    23.512797     22.16715   0.82055505    435.25464   -3424.1866 
   21200    -101747.8   -91772.264      242.243    20724    226365.06    98.691876    232.60466   -57.696294    121.16727    434.35172    23.511543    22.165968   0.86173909    435.21346   -3389.9366 
   21300   -101785.79   -91774.597    243.10869    20724    226412.47   -51.444966    79.978721   -250.36167    16.048053    434.27677    23.516034    22.170202   0.89921636    435.17598   -3379.5754 
   21400   -101773.02   -91756.081     243.2484    20724    226467.63     -54.7651    21.809637   -191.63132    5.5263813    434.28928     23.51856    22.172584   0.89296231    435.18224   -3398.2183 
   21500   -101766.14   -91759.618    242.99529    20724     226233.5   -39.550834   -94.597649   -18.453884   -5.6009679    434.29622    23.506212    22.160942   0.88948863    435.18571   -3402.7228 
   21600   -101745.63    -91753.25    242.65204    20724    226427.95    48.127608    79.747034   -52.450829    117.08662    434.34382    23.515023    22.169249   0.86569129    435.20951   -3409.4693 
   21700   -101766.88   -91769.398    242.77595    20724    226211.46    -44.20808    4.2294602   -41.207526   -95.646176    434.22551    23.506981    22.161667   0.92484381    435.15036   -3395.0904 
   21800   -101593.87    -91727.09    239.60196    20724    226258.03    46.569442   -0.6488227   0.22789284    140.12926    434.59951    23.499282    22.154409   0.73784742    435.33735   -3441.9723 
   21900   -101729.53   -91724.713    242.95403    20724    226302.76    11.774574    42.888291     3.318948   -10.883518    434.46619    23.505211    22.159998   0.80450618    435.27069    -3442.133 
   22000    -101707.5   -91725.633    242.39659    20724    226363.27    74.496195    68.834717    156.07647   -1.4226001    434.52474    23.506769    22.161467   0.77522834    435.29997   -3443.9806 
   22100   -101678.59   -91699.375    242.33212    20724    226229.96   -14.977947   -138.81431   -158.91583    252.79629    434.30296    23.505846    22.160597     0.886121    435.18908    -3470.404 
   22200   -101665.83   -91713.888    241.66993    20724    226267.51   -16.951269    86.148592   -239.92879    102.92639     434.5054    23.502319    22.157272   0.78489878     435.2903   -3454.7039 
   22300   -101752.74   -91721.181    243.60344    20724    226238.81    12.281327    76.465393   0.73926128   -40.360672    434.18536    23.509489    22.164031   0.94492126    435.13028   -3452.8845 
   22400   -101613.48   -91658.413     241.7459    20724    226099.66     18.17896    62.583884    57.004631   -65.051634    434.25011    23.500505    22.155562   0.91254285    435.16266   -3521.0864 
   22500   -101598.82   -91666.383    241.19635    20724    226155.49    1.3815314   -152.22374    233.83708   -77.468742     434.2765    23.502692    22.157624   0.89934921    435.17585   -3510.8871 
   22600   -101628.88   -91649.961    242.32504    20724    226132.17   -32.178825   -75.629016   -64.748374    43.840914     434.1593    23.504653    22.159472   0.95795231    435.11725   -3526.9369 
   22700   -101613.65   -91634.518    242.33031    20724    226152.71   -7.6786499    86.256706    205.50653   -314.79918    434.24026    23.503529    22.158413   0.91747144    435.15773   -3543.0738 
   22800    -101618.1   -91627.679    242.60429    20724    226256.93   -21.168175      37.4466 -0.033343467   -100.91778    434.45286    23.503191    22.158094   0.81116781    435.26403   -3547.3001 
   22900   -101543.38   -91601.924    241.41532    20724     226182.5    2.7334438  -0.40797699    40.888258   -32.279949    434.26341     23.50445    22.159281   0.90589368    435.16931   -3578.0163 
   23000   -101665.83   -91607.164     244.2615    20724    226066.78    -69.21761    27.673051   -108.34393   -126.98195    434.35209    23.496038     22.15135    0.8615546    435.21365   -3575.3489 
   23100    -101554.7   -91595.327    241.85051    20724    226097.19    -28.02972    3.0160952    83.742931   -170.84819    434.33087    23.498192    22.153381   0.87216517    435.20303   -3586.8829 
   23200   -101606.86   -91609.532    242.77212    20724    226057.62   -58.072179   -176.73411     -262.072    264.58957    434.28101    23.497484    22.152714   0.89709598     435.1781   -3574.8135 
   23300   -101571.21    -91601.44     242.1028    20724    226059.51     1.112127   -79.398003   -77.409087    160.14347    434.00106     23.50516     22.15995    1.0370705    435.03813    -3586.494 
   23400   -101565.61   -91576.481    242.57305    20724    226120.98    66.523628    59.137625   -253.27612    393.70938    434.28157    23.500762    22.155804   0.89681691    435.17838   -3613.2182 
   23500   -101521.92   -91577.669    241.48325    20724    226096.14    3.3089389    175.83358    -95.77689   -70.129875    434.05375    23.505637      22.1604    1.0107251    435.06447    -3610.101 
   23600      -101597   -91595.276    242.87878    20724    225901.11   -60.941362   -134.59537   -134.99004    86.761331    434.07847    23.494828     22.15021    0.9983632    435.07684   -3597.2841 
   23700   -101530.41   -91586.287     241.4801    20724    225889.61    82.201175   -7.2104487   -23.351279    277.16525    433.80576    23.501614    22.156607    1.1347214    434.94048   -3615.6063 
   23800   -101593.19   -91590.807    242.89477    20724    225819.63   -37.736066    13.776145   -7.3753952   -119.60895    434.00463    23.492589    22.148099    1.0352866    435.03991   -3610.2476 
   23900   -101655.73    -91577.19    244.74429    20724    226022.14    44.503075    147.78592     16.94171   -31.218408    434.21329    23.497472    22.152703   0.93095352    435.14425   -3622.4784 
   24000   -101445.58   -91544.408    240.43715    20724    225899.15    90.540279    78.624407   -148.98052    341.97695    434.01805    23.496361    22.151655    1.0285752    435.04662   -3659.2149 
   24100    -101563.3   -91544.429     243.2953    20724    225993.91     -11.6239   -122.04546   -147.91621    235.08997    433.77244    23.507942    22.162573     1.151381    434.92382    -3652.367 
   24200   -101600.63    -91544.88    244.19092    20724    225999.03    78.334654    153.76657    215.78738   -134.54999    433.83454    23.506526    22.161238    1.1203325    434.95487   -3658.6712 
   24300   -101508.26   -91508.623    242.82812    20724     226150.2    -35.97378    162.27655    72.555484   -342.75338    433.93423    23.511684    22.166101    1.0704827    435.00472     -3687.19 
   24400   -101565.54   -91490.522    244.65869    20724    226194.44    43.485547    146.21372    268.81726   -284.57434    434.19923    23.506808    22.161504   0.93798622    435.13721    -3707.973 
   24500   -101494.44   -91476.643    243.26912    20724    226078.91   -2.7017779    157.10173   -232.61215    67.405085    434.36239     23.49639    22.151682   0.85640557    435.21879    -3725.177 
   24600   -101509.71     -91518.3     242.6283    20724    226149.08    22.701811    4.4627295   -169.21228    232.85498    434.27409    23.502425    22.157371   0.90055409    435.17465   -3681.5418 
   24700   -101515.91   -91525.778    242.59723    20724    225938.25   -37.575505   -73.009284   -155.66348    115.94625    433.98035    23.499416    22.154535    1.0474258    435.02777   -3680.7108 
   24800   -101480.69   -91513.223    242.04695    20724    226096.04   -15.197892   -179.68403    112.56502    21.525324    434.11987    23.503842    22.158708   0.97766589    435.09753   -3690.4008 
   24900   -101623.53   -91492.903    246.00904    20724    225892.98   -152.47731    20.468136   -206.58178   -271.31828    434.31285    23.488065    22.143834   0.88117438    435.19403   -3711.9188 
   25000   -101480.62   -91448.163     243.6252    20724    226077.12   -3.4576459    -122.8521    186.64987   -74.170714    434.02734    23.505364    22.160142    1.0239284    435.05127   -3760.2867 
   25100   -101386.64    -91438.54    241.57658    20724    225958.23    31.282201    62.175027   -1.9861412    33.657718    433.57812    23.511353    22.165789    1.2485414    434.82666   -3774.6313 
   25200   -101429.82   -91446.944    242.42107    20724    226064.99     83.86643    256.46533    33.406242   -38.272284     434.0314    23.504623    22.159444    1.0218984     435.0533   -3767.1065 
   25300   -101456.87   -91447.672    243.06029    20724    226167.26    12.680679    115.70753    137.13858   -214.80407    434.11629    23.507641    22.162289   0.97945631    435.09574   -3762.8512 
   25400   -101449.28   -91442.503    243.00167    20724    225930.71   0.99080404   -70.978095    53.764976    20.185531    434.08878    23.496089    22.151398    0.9932118    435.08199   -3775.0446 
   25500   -101509.16   -91414.323    245.13994    20724    226013.57   -44.987333   -230.16404   -43.783882    138.98592    434.10975    23.499829    22.154925   0.98272525    435.09247   -3800.3177 
   25600   -101450.99   -91428.804    243.37568    20724     226143.9    47.684178     141.1656    3.9167831   -2.0298446    434.25537    23.502662    22.157595   0.90991399    435.16529   -3786.1751 
   25700   -101416.82   -91378.838    243.75936    20724    226209.14    23.315377   -4.2809256    105.66296   -31.435903    434.42486    23.501466    22.156468   0.82517232    435.25003   -3832.4018 
   25800   -101399.75   -91392.481    243.01347    20724    225993.55   -14.243806    232.68352   -63.635602   -211.77934    434.32634    23.492928    22.148419   0.87443239    435.20077   -3824.1064 
   25900   -101414.36   -91384.528     243.5613    20724    226060.82     62.54665   -27.275468    -27.68098     242.5964    434.24952    23.498503    22.153674    0.9128421    435.16236   -3835.8191 
   26000   -101496.98   -91393.509    245.34951    20724    226216.02    66.515622   -52.554723    261.29897   -9.1973797    434.43429    23.501569    22.156564    0.8204549    435.25475   -3824.1811 
   26100   -101462.84   -91372.533    245.02992    20724       225999   -7.0159021   -5.5090137    186.79522   -202.33391      434.215    23.496223    22.151525    0.9300994     435.1451   -3847.2429 
   26200   -101490.93   -91348.738    246.29002    20724     226225.4   -5.2503499    55.498145   -102.15491    30.905718     434.1639    23.509373    22.163922   0.95564872    435.11955   -3867.1047 
   26300    -101458.9   -91372.294    244.94005    20724    226124.82    33.568535   -81.982832    210.68938   -28.000941     434.1173    23.505408    22.160184   0.97895126    435.09625   -3851.2018 
   26400   -101450.67   -91340.299    245.51714    20724    226084.32   -68.370927   -62.047078    1.9552147   -145.02092    434.02785    23.505724    22.160482    1.0236765    435.05152   -3881.1178 
   26500   -101315.54   -91325.466    242.59582    20724    226077.07    47.526677    86.309499   -108.39681    164.66734    434.32295    23.497361    22.152597   0.87612364    435.19908   -3902.5062 
   26600   -101391.59   -91307.754    244.87283    20724    226147.38    28.794283    82.350402   -26.787775    30.820221    434.11862    23.506544    22.161255   0.97828814    435.09691   -3919.7723 
   26700   -101395.68    -91332.21    244.37835    20724    226129.16    37.513104   -69.936238    337.30654   -154.83099    434.24458    23.502188    22.157149   0.91531203    435.15989   -3896.3661 
   26800   -101404.83   -91272.735    246.04479    20724    226190.85   -80.572819   -54.638907   -100.53564   -86.543907    434.02451    23.511352    22.165788    1.0253444    435.04986   -3949.0077 
   26900    -101394.5   -91272.966    245.78827    20724    226260.87    44.034639    293.00497    1.7497078   -162.65076    433.77542    23.521742    22.175583    1.1498897    434.92531   -3956.1492 
   27000   -101502.19   -91312.011    247.45517    20724    226009.86   -83.404078   -274.56938    63.180061   -38.822912    434.11473    23.499501    22.154616   0.98023427    435.09497    -3921.267 
   27100   -101258.26   -91279.145    242.32991    20724    226000.97    113.84071    304.89631    29.368025    7.2577855    434.18303    23.497191    22.152437   0.94608696    435.12911   -3964.5905 
   27200   -101324.61   -91282.138    243.86838    20724    226080.38    47.182707    201.38271   -14.745766   -45.088822    434.27003    23.498964    22.154109   0.90258561    435.17261   -3958.5931 
   27300   -101345.11   -91301.468    243.89683    20724    225906.29   -41.680109     -178.264   -139.31666    192.54033    434.02475    23.496552    22.151835    1.0252256    435.04997   -3940.4591 
   27400   -101359.96   -91267.136     245.0912    20724    226224.78   -20.583509   -103.86904   -123.57291    165.69141    434.27873    23.506232    22.160961   0.89823316    435.17697   -3968.7401 
   27500   -101334.33   -91306.593    243.51042    20724    226174.74    58.381805   -151.03281    60.476445    265.70178    434.26006    23.504138    22.158987   0.90757082    435.16763   -3936.2751 
   27600   -101313.17   -91293.463    243.31557    20724    226123.42   -35.550002    22.805846     12.27624   -141.73209    433.91089    23.510925    22.165385    1.0821554    434.99304   -3945.3791 
   27700   -101265.92   -91266.628    242.81977    20724    226263.25    21.326094    128.43478    245.60475   -310.06125    434.06428    23.514037    22.168319    1.0054575    435.06974   -3973.0024 
   27800   -101300.73   -91261.627    243.78655    20724     226311.4   -27.973505    3.8450437   -55.661637   -32.103922    434.29585    23.510269    22.164767   0.88967645    435.18552   -3977.3336 
   27900   -101268.94   -91244.267    243.43619    20724    226274.24    6.2579978     53.16363   -269.33253    234.94289    434.22568    23.510238    22.164738   0.92476026    435.15044   -3998.2594 
   28000   -101275.57   -91255.336    243.32834    20724    226115.48    52.325785     139.0596    147.08069   -129.16294    434.10641    23.505217    22.160004   0.98439571     435.0908   -3994.6824 
   28100   -101260.94   -91207.789     244.1277    20724    226096.92    15.525826   -29.493516   -31.612206     107.6832    433.86306    23.510843    22.165308    1.1060716    434.96913    -4039.849 
   28200   -101225.29   -91174.578    244.06851    20724    226189.91    46.922047   -93.236248    77.546862    156.45553    433.95584    23.513163    22.167495    1.0596802    435.01552   -4074.6993 
   28300   -101269.74   -91218.037    244.09261    20724    226042.07   -6.8913441   -132.92751    50.821194    61.432279    433.93134    23.506142    22.160876    1.0719306    435.00327    -4033.705 
   28400   -101340.01   -91218.854    245.77906    20724    226172.47   -29.861085    40.797202   -89.105911   -41.274547     433.8946    23.513916    22.168205    1.0902979     434.9849   -4031.3771 
   28500   -101290.15   -91196.825    245.10313    20724    226215.91    34.547484    -38.04251    147.31848   -5.6335192    434.04112    23.512204    22.166591    1.0170376    435.05816   -4055.8024 
   28600   -101336.83   -91210.483    245.90522    20724    226362.45    40.628387   -16.092761    6.1695096    131.80841    434.08867    23.518531    22.172556   0.99326359    435.08194   -4038.0079 
   28700   -101350.13   -91161.443     247.4189    20724    226100.17    32.139722    196.84841   -170.29721    69.867957    433.84896    23.511394    22.165828    1.1131208    434.96208   -4097.0128 
   28800   -101260.69   -91182.557    244.73431    20724    226014.51    12.111281    -96.27772    6.5254801    126.08608    433.55982    23.514777    22.169017    1.2576889    434.81751    -4076.714 
   28900   -101291.65   -91209.253    244.83797    20724    226133.64   -23.864141    54.589816    269.87941   -396.06165    433.59067    23.520137     22.17407    1.2422652    434.83293   -4047.1547 
   29000   -101298.81   -91225.387    244.62003    20724    226003.57    77.358988     239.2733    33.135699   -40.332035    433.44479    23.517328    22.171422    1.3152029       434.76   -4040.4298 
   29100   -101194.11   -91197.585    242.75262    20724    226022.03   -38.119295   -64.279437   -195.17229    145.09384    433.38082    23.520024    22.173963    1.3471921    434.72801   -4061.3262 
   29200   -101275.06   -91177.934     245.1956    20724    225854.29   -86.395675   -34.673479   -358.65822    134.14468    433.26862    23.514339    22.168604    1.4032893    434.67191   -4085.0805 
   29300   -101333.31    -91195.41    246.18567    20724    225802.65   -2.6065627    97.261097    18.681361   -123.76215    433.27814    23.511392    22.165826    1.3985294    434.67667   -4074.7338 
   29400   -101257.19   -91181.654    244.67132    20724    225920.33     22.07464   -79.938889    330.11044   -183.94764    433.48574    23.511886    22.166291    1.2947297    434.78047   -4086.8798 
   29500   -101246.72   -91185.742    244.31784    20724    225828.08   -77.864272   -169.50376    159.39929   -223.48835    433.49997    23.506699    22.161401    1.2876158    434.78758    -4080.348 
   29600   -101305.06   -91145.603    246.70911    20724    226008.26   -61.469658    -30.86842   -213.39573    59.855179    433.53147     23.51522    22.169435     1.271866    434.80333   -4117.6729 
   29700    -101275.7   -91107.299    246.92627    20724    226078.91    -87.02138     150.0763   -368.81484   -42.325601    433.46405    23.520724    22.174624    1.3055733    434.76963   -4155.1766 
   29800   -101288.74   -91106.476    247.26305    20724    226096.87    4.7501194   -25.947185   -80.528141    120.72568    433.39768     23.52346    22.177203    1.3387624    434.73644   -4162.3351 
   29900   -101261.01   -91114.237    246.40111    20724    226019.29     23.57801    11.549875    177.20998   -118.02582    433.49189    23.516868    22.170988    1.2916552    434.78354   -4157.1182 
   30000   -101269.49   -91153.383    245.65649    20724    225961.23   -9.1278518    22.353536   -261.35518    211.61809     433.4017    23.516294    22.170447    1.3367506    434.73845   -4120.1108 
   30100   -101178.04   -91118.567    244.28113    20724    226181.61     50.95483    2.2431831    222.14444   -71.523134    433.61609    23.521941    22.175771    1.2295534    434.84565   -4152.3795 
   30200   -101221.01   -91124.449    245.18172    20724    225967.58    63.973137    65.128565    34.178591    92.612255    433.31783      23.5189    22.172904    1.3786864    434.69651   -4153.7529 
   30300   -101208.45   -91097.957    245.52003    20724    226035.53   -46.734077   -148.29382    10.801852   -2.7102618    433.49875    23.517527    22.171609    1.2882256    434.78697   -4174.0731 
   30400   -101117.17   -91040.537    244.69799    20724    225857.78   -22.133363    2.7947651   -203.76061    134.56575    433.37536    23.511624    22.166045    1.3499175    434.72528   -4238.6663 
   30500   -101262.73   -91051.888    247.95688    20724    226104.27   -29.892483   -63.493406     5.456741   -31.640785    433.40367    23.523682    22.177412     1.335767    434.73943   -4223.4946 
   30600   -101306.44   -91059.855    248.82491    20724    225820.52    19.749904   -26.499617   -68.352397    154.10173    433.07756    23.517766    22.171835    1.4988197    434.57638   -4226.4021 
   30700   -101183.63   -91066.803    245.67393    20724     226089.8    106.92316    336.50811   -181.27045     165.5318    433.32909    23.524954    22.178611    1.3730545    434.70215   -4215.8365 
   30800   -101168.96   -91055.997    245.58001    20724    225742.02   -18.591301   -33.607264    156.91656    -179.0832     433.3252    23.506959    22.161646    1.3750003     434.7002   -4231.6688 
   30900   -101182.01   -91019.669    246.77933    20724     226083.4   -8.5333802    -44.11792    16.337343    2.1804362    433.64015    23.516182    22.170342     1.217527    434.85767   -4259.2386 
   31000   -101270.76   -91039.313    248.45743    20724    225836.79   0.89389065    86.772505   -88.545069    4.4542361    433.39212    23.510077    22.164586    1.3415385    434.73366   -4250.1237 
   31100   -101181.61   -90992.078    247.43941    20724    225856.92   -15.935738    -90.93886    91.697982   -48.566335    433.51519    23.507787    22.162427    1.2800058    434.79519   -4295.9785 
   31200   -101201.91   -91047.669     246.5826    20724    225903.29    73.895431    177.07455    34.358317    10.253431    433.48542    23.511008    22.165463    1.2948879    434.78031   -4243.6484 
   31300   -101217.97   -91052.482    246.85564    20724    225739.31    -177.9475   -154.65698   -306.08421   -73.101315    433.38496    23.505197    22.159985    1.3451222    434.73008   -4233.0294 
   31400   -101150.14   -91080.929    244.51776    20724    225721.08   -69.393671   -92.073062   -284.42379    168.31583    433.27833     23.50714    22.161817    1.3984365    434.67676   -4211.5744 
   31500   -101217.34   -91079.486     246.1846    20724    225730.54    104.14501    130.84629   -88.703935    270.29266    433.13564    23.511504    22.165932    1.4697785    434.60542   -4222.4283 
   31600   -101195.73   -91080.852    245.62669    20724       225723   -17.262972    163.10236    234.08351   -448.97479    433.26921    23.507487    22.162144    1.4029975     434.6722   -4217.3275 
   31700   -101194.71    -91027.28    246.90279    20724    225779.99   -51.287361   -54.770309    -9.779972   -89.311801    433.35911    23.508016    22.162643    1.3580458    434.71715    -4269.739 
   31800   -101205.55    -91040.36    246.84835    20724    225847.23   -28.294634   -66.688373   -129.46203     111.2665    433.26622    23.514036    22.168319    1.4044895    434.67071   -4257.9887 
   31900   -101269.74   -90975.051    249.99308    20724    225792.82   -116.04979    -117.3279   -285.60932    54.787844    433.24269    23.511842     22.16625    1.4162556    434.65894   -4321.3844 
   32000   -101083.45   -90982.268    245.29408    20724    225906.49    66.846185   -65.695916   -130.92511    397.15958    433.15131    23.520241    22.174168    1.4619474    434.61325   -4317.6165 
   32100   -101110.07   -90969.034    246.26179    20724    226118.34    66.510461  -0.16928237   -51.715605    251.41627    433.42245    23.523905    22.177622    1.3263759    434.74882   -4327.5682 
   32200   -101124.38   -90946.394    247.15917    20724    225900.07   -28.298902    133.65283    -34.91487   -183.63466    433.53986    23.509364    22.163914    1.2676718    434.80753   -4352.6242 
   32300   -101049.42   -90876.383    247.03886    20724       225888    3.8186469   -1.8741782    8.0085673    5.3215514    433.51077    23.509525    22.164065    1.2822161    434.79298    -4425.468 
   32400   -101187.37   -90896.821    249.89247    20724     225901.4   -57.938167   -57.630301   -105.61808   -10.566119    433.62892    23.507019    22.161703    1.2231405    434.85206    -4402.568 
   32500   -101175.56    -90920.52    249.03038    20724    225986.77    7.3910441   -83.207323    138.04569   -32.665233    433.53304     23.51406    22.168341    1.2710807    434.80412   -4379.4242 
   32600   -101113.68   -90891.277    248.23769    20724    226027.56    29.974914    78.590771    40.249959   -28.915988    433.43086    23.518954    22.172955    1.3221681    434.75303   -4411.1715 
   32700   -101076.95   -90872.591    247.79952    20724     225963.7    56.015511    48.942375    171.82128   -52.717118    433.52307     23.51313    22.167464    1.2760644    434.79914   -4432.7018 
   32800   -101025.58   -90879.301    246.38927    20724    225919.75    33.258438    74.280118   -14.800519    40.295715    433.61568    23.508332    22.162941    1.2297599    434.84544   -4427.3488 
   32900   -101143.09   -90911.866    248.45195    20724     225921.6   -10.413981   -63.093807   -146.07577    177.92763    433.21876    23.519195    22.173183    1.4282188    434.64698   -4398.0275 
   33000   -101114.72   -90864.461    248.91423    20724    225854.51   -9.2360228    127.48549   -136.93853   -18.255037    433.36515    23.511731    22.166145    1.3550238    434.72018   -4446.6263 
   33100   -101113.87   -90908.225    247.83085    20724    225902.97   0.13212494    128.63089   -21.602452   -106.63206    433.61635    23.507441    22.162101     1.229423    434.84578   -4403.2348 
   33200   -101055.32   -90897.807    246.66186    20724    225929.55   -44.159632    45.131986    66.848377   -244.45926    433.58607    23.509645    22.164179    1.2445643    434.83064     -4411.15 
   33300   -101017.37   -90906.372    245.53242    20724    225757.83    1.5863193    82.097259    54.138834   -131.47714    433.75899    23.496024    22.151337    1.1581032     434.9171   -4410.3144 
   33400   -101155.99   -90885.248    249.41147    20724    225891.03   -81.523737   -259.25626    -45.82147    60.506515    433.52439    23.509313    22.163866    1.2754027     434.7998   -4426.2362 
   33500   -101030.09   -90880.723    246.46423    20724    226001.85   -12.563543   -140.96973   -311.40868    414.68778     433.6715     23.51109    22.165541    1.2018512    434.87335   -4430.5404 
   33600   -100992.32   -90855.626    246.15635    20724    225763.76    91.161512    98.877651   -33.510112      208.117    433.39066    23.506315    22.161039     1.342269    434.73293   -4469.0935 
   33700   -100929.83   -90826.705    245.34131    20724    225959.83   -10.190067   -164.91019    263.99782   -129.65784    433.73593    23.507158    22.161834    1.1696371    434.90556   -4487.4706 
   33800   -100941.86   -90777.581    246.82618    20724     225930.5   -25.754341   -184.04514   -104.34152    211.12364    433.78921    23.504189    22.159035    1.1429973     434.9322   -4539.5487 
   33900   -101055.11    -90804.83    248.91471    20724     226003.2    -150.2107   -247.73264   -61.989031   -140.91041    433.45611    23.517001    22.171114    1.3095459    434.76565   -4503.8981 
   34000   -101050.19   -90824.508     248.3174    20724    225992.21   -12.703123    236.89391    27.961003   -302.96428    433.59697    23.512609    22.166973    1.2391142    434.83609   -4495.9868 
   34100   -100974.27     -90822.5    246.52252    20724     225920.4    -51.62039   -27.810872   -29.471999   -97.578299    433.48117    23.512013    22.166412    1.2970166    434.77818    -4497.551 
   34200   -100953.26   -90799.213    246.57776    20724    225839.72    82.091743    -15.40219   -1.4601756     263.1376    433.23074    23.514608    22.168858    1.4222285    434.65297   -4530.7462 
   34300   -100934.58   -90794.048    246.24969    20724    225819.79   -59.909228   -75.475263   -125.05599    20.803574    433.17828    23.514994    22.169222    1.4484581    434.62674   -4529.9054 
   34400   -101015.79   -90769.663    248.81393    20724    225867.39    21.492497   -54.704753    139.42323   -20.240986    433.33918    23.513106    22.167442    1.3680113    434.70719   -4559.4105 
   34500   -100974.94   -90735.153       248.66    20724    225762.88   -84.262294   -285.24803   -77.002515    109.46366     433.2224    23.510834    22.165299    1.4264016     434.6488    -4592.689 
   34600   -100949.92   -90788.126    246.76588    20724    225730.34      58.9034    27.064002    66.743992    82.902204    433.11172    23.512143    22.166534    1.4817425    434.59346   -4546.5168 
   34700   -100940.67    -90823.75    245.67627    20724    225730.48    36.176389    123.72074    -62.11301    46.921432     432.8755    23.518565    22.172588    1.5998475    434.47535   -4511.2798 
   34800   -101044.82    -90799.09    248.80414    20724    225752.01    17.950253    172.08435   -64.379067   -53.854528    433.02735    23.515562    22.169757    1.5239244    434.55128   -4537.2935 
   34900   -100996.33   -90809.387    247.37653    20724    225692.62    16.892434    49.518539    51.286527   -50.127763    433.18918    23.508077      22.1627    1.4430087    434.63219   -4529.4291 
   35000   -101099.67   -90766.654    250.92373    20724    225779.05   -100.19138   -33.226541   -259.12044   -8.2271665    433.24315    23.511113    22.165562     1.416027    434.65917   -4564.1471 
   35100   -100936.77   -90758.273    247.17146    20724    225889.32    25.967487    -153.5006    252.53963   -21.136562    433.20141    23.517986    22.172043     1.436895     434.6383   -4575.2685 
   35200   -100946.33   -90744.243    247.74437    20724    225679.77   -29.669668    52.090659   -86.691495    -54.40817    433.16533    23.508054    22.162679    1.4549353    434.62026   -4594.1601 
   35300   -100889.77   -90729.169    246.73699    20724    225884.72     37.45363   -140.42641    112.74027    140.04703     433.2387    23.516735    22.170863    1.4182499    434.65695   -4607.3117 
   35400   -100945.33    -90699.85    248.79818    20724    225702.27    -10.76716    98.076318    122.19021   -252.56801    433.15124    23.509609    22.164145     1.461982    434.61322   -4641.0986 
   35500   -100841.94   -90732.561    245.49299    20724    225798.25   -9.6175824    5.0772083   -138.71586     104.7859    433.22643    23.512566    22.166933    1.4243872    434.65081    -4604.887 
   35600   -100957.54   -90711.806    248.80443    20724    225732.11    2.1969885   -29.533563    -211.3818    247.50633    433.04817     23.51396    22.168247    1.5135149    434.56169   -4633.6606 
   35700   -100970.19    -90747.52    248.24429    20724    225936.87    113.69194    305.34539   -90.562401    126.29285    433.40172    23.515025    22.169251    1.3367385    434.73846   -4599.4199 
   35800   -100995.85   -90733.083    249.21798    20724    225870.83   -88.969203   -208.61269    256.35037   -314.64528    433.30264    23.514276    22.168545    1.3862777    434.68892    -4605.841 
   35900   -101019.81   -90729.065     249.8974    20724    225797.21   -118.54237   -36.209325   -79.983515   -239.43427    433.12955    23.515142    22.169361    1.4728261    434.60237   -4610.5107 
   36000   -101002.22   -90696.452    250.26213    20724    225756.86   -121.05021   -160.78941   -56.974872   -145.38635    433.35492    23.506925    22.161614    1.3601424    434.71506   -4645.2603 
[...]
  491300   -93762.225   -81079.918    307.97328    20724     220970.5   -1.7685967   -31.529547    -41.42783    67.651587    421.07108     23.59319    22.242942     7.502058    428.57314   -21878.301 
  491400   -93678.988   -81094.321    305.60223    20724    220857.76    8.0418605   -44.457267    60.854163    7.7286853    420.93555    23.590967    22.240846    7.5698229    428.50538   -21870.183 
  491500   -93744.577   -81132.684    306.26338    20724    220697.47    125.93544    102.52222    172.42153    102.86258    420.61612    23.591358    22.241215    7.7295407    428.34566   -21843.472 
  491600   -93744.716   -81078.601     307.5801    20724    220930.89   -27.410804   -49.566858     -76.5648    43.899247    420.94446    23.594623    22.244293    7.5653713    428.50983   -21885.966 
  491700   -93791.127   -81101.201    308.15832    20724    220803.86   -90.614649    20.332357   -142.05204   -150.12427    421.17993    23.581244     22.23168    7.4476362    428.62756   -21867.382 
  491800   -93730.651   -81111.331    306.44374    20724    220698.32    53.098424  -0.98089307     10.40397    149.87219    421.24417     23.57381    22.224671    7.4155144    428.65969   -21867.057 
  491900   -93854.227   -81110.988    309.45297    20724    220828.68   -93.870534    23.564573   -67.954295   -237.22188    421.34523    23.577943    22.228568    7.3649828    428.71022   -21857.801 
  492000   -93744.235   -81128.367    306.35994    20724    220887.97    10.572418   -113.19886    146.24995   -1.3338346    421.32516    23.581669    22.232081    7.3750197    428.70018   -21845.606 
  492100   -93727.465    -81132.89    305.84284    20724    220962.22    43.751422   -116.83157   -102.79707     350.8829    421.38988    23.583822     22.23411    7.3426595    428.73254   -21841.382 
  492200   -93831.885    -81093.94     309.3244    20724    221102.28     90.31367   -138.29756     68.98085    340.25772    421.74442    23.581376    22.231805    7.1653896    428.90981   -21879.696 
  492300   -93671.693   -81097.409    305.35011    20724    220970.92    17.258022   -16.186269   -14.845973    82.806308    421.51509    23.580783    22.231245    7.2800554    428.79514   -21878.042 
  492400   -93773.855   -81085.286    308.12537    20724     221085.5    -85.32527   -25.111179   -265.65695    34.792315    421.34302    23.591711    22.241548    7.3660923    428.70911   -21883.935 
  492500   -93739.196   -81104.451    306.81833    20724    221075.21    76.220402   -33.682801   -92.806564    355.15057    421.33974    23.591254    22.241117     7.367728    428.70747   -21873.664 
  492600   -93761.133   -81073.517    308.10223    20724    221127.67    22.197632     33.27004    128.31895   -94.996091    421.17953     23.59854    22.247986    7.4478347    428.62737   -21902.661 
  492700   -93855.655   -81085.311    310.11118    20724    221130.15   -11.166469   -67.107771   -89.172245    122.78061    421.48058    23.590243    22.240164     7.297311    428.77789   -21888.635 
  492800   -93760.529   -81093.459    307.60329    20724    221176.06   -12.207332   -252.33928    191.20126    24.516016    420.96343    23.607179    22.256131    7.5558863    428.51931   -21883.085 
  492900   -93740.472   -81078.643    307.47602    20724    220929.16   -0.9524485    5.3993757   -138.57159    130.31487    421.00494    23.592836    22.242608    7.5351311    428.54007   -21908.755 
  493000   -93764.674   -81055.387    308.62847    20724    220873.92    11.290183    38.674798    122.45523   -127.25948    421.34131    23.580468    22.230948    7.3669444    428.70826   -21934.074 
  493100   -93731.417    -81084.43     307.1156    20724    220755.65     69.37007   -77.362966     17.21767    268.25551    421.30445    23.575185    22.225968    7.3853761    428.68982   -21916.143 
  493200   -93790.147   -81104.527    308.05376    20724    220864.51    128.95117    139.73386   -90.343257    337.46291    421.36093    23.579417    22.229957    7.3571338    428.71807   -21897.343 
  493300   -93680.926    -81081.45    305.96186    20724    221009.63   -14.157739   0.24995241    298.76109   -341.48426    420.95071    23.598652    22.248091    7.5622471    428.51295   -21908.544 
  493400   -93688.528   -81112.395    305.39502    20724    221053.39     73.70781    23.560366   -239.58617    437.14924    421.25895    23.592352    22.242152    7.4081265    428.66707   -21883.468 
  493500   -93719.867   -81115.282    306.08591    20724    220911.72    13.351283    131.79489    160.11966    -251.8607    421.14431       23.588    22.238049    7.4654451    428.60975   -21883.162 
  493600   -93751.723   -81055.605    308.30867    20724    221173.46    38.103369    57.984547   -82.644743     138.9703    421.19096    23.600663    22.249987    7.4421208    428.63308   -21936.238 
  493700   -93659.728   -81038.662    306.48615    20724     221450.9    52.416284    10.759104   -9.4517309    155.94148    421.37803    23.610218    22.258996    7.3485866    428.72661    -21942.29 
  493800   -93633.953   -81043.894    305.73319    20724    221280.13    71.261005    382.78657   -271.43917    102.43562    421.63018    23.594055    22.243757    7.2225078    428.85269   -21945.772 
  493900   -93648.728   -81071.805     305.4142    20724    221145.56    121.15997    55.100486    270.88341    37.496014    421.13267    23.600807    22.250124    7.4712657    428.60393   -21929.432 
  494000    -93812.31   -81086.665    309.02572    20724     220982.7    25.821293    42.833666   -131.67232    166.30253    421.27201    23.588213     22.23825    7.4015927    428.67361   -21917.572 
  494100   -93643.649   -81064.888    305.45883    20724       220944   -70.669784   -50.407422   -430.44762    268.84569    421.41442    23.582163    22.232546    7.3303913    428.74481   -21937.075 
  494200    -93791.31   -81036.997    309.72187    20724    221167.61   -8.1330069   -140.64252   -314.14606    430.38957    421.62653    23.588157    22.238197    7.2243344    428.85087   -21962.225 
  494300   -93638.174   -81033.718    306.08279    20724    220950.33    9.2252832    36.246626    60.921182   -69.491959    421.37228    23.583679    22.233976    7.3514598    428.72374   -21974.425 
  494400   -93766.311   -81048.676    308.83119    20724    220979.27    76.915636   -64.609633    -89.32355    384.68009    421.79997    23.573263    22.224156    7.1376138    428.93759   -21965.226 
  494500   -93508.726   -81035.124    302.90518    20724     220872.1    14.961569   -95.703205    166.56329   -25.975382    421.69242    23.570552    22.221599    7.1913902    428.88381   -21979.461 
  494600   -93661.825    -81066.55    305.85985    20724    220913.39    84.002929    73.136274    82.856271    96.016243    421.77037    23.570576    22.221623     7.152415    428.92278   -21951.505 
  494700   -93748.154   -81077.978    307.67872    20724    220711.77   -32.710992     84.65754   -67.185897   -115.60462     421.6292    23.563762    22.215198    7.2230016     428.8522   -21943.547 
  494800   -93742.739   -81051.903    308.18042    20724    220438.85    7.9142936    39.724966   -184.55501    168.57293      421.599    23.550032    22.202254    7.2381011     428.8371   -21986.578 
  494900   -93743.234   -81070.359    307.74427    20724    220640.02    71.382829   -38.835225     95.34812    157.63559    421.79411    23.555325    22.207245    7.1405441    428.93466    -21965.06 
  495000   -93715.527   -81057.292    307.38876    20724    221144.03    18.080453   -64.027327   -60.421857    178.69054    422.04057    23.575327    22.226102    7.0173165    429.05788   -21957.188 
  495100   -93733.565   -81029.926    308.49133    20724    221191.22   -5.4553969   -117.13752    -66.66638    167.43771    422.07525    23.576874     22.22756     6.999975    429.07523   -21985.039 
  495200   -93664.866   -81057.724    306.14802    20724    221097.43    107.31034    153.66045    72.079164    96.191391    421.96377    23.574988    22.225782    7.0557158    429.01948   -21967.194 
  495300   -93737.865   -81038.982    308.37584    20724    221119.05   -34.512944   -224.34363    -67.71511    188.51991    421.92328    23.577272    22.227935    7.0759618    428.99924   -21982.095 
  495400   -93765.297   -81075.002     308.1673    20724    221119.55    -14.32882   -188.77344    222.19453   -76.407549    421.97768    23.575779    22.226528      7.04876    429.02644   -21947.406 
  495500    -93814.39   -81052.408     309.9081    20724       221045   -128.39284    50.843055   -400.08028   -35.941295    421.92001    23.573415    22.224299    7.0775953     428.9976   -21971.109 
  495600    -93824.96   -81059.371    309.99571    20724    221002.37    54.399967   -259.27163    335.60521    86.866313     422.0331    23.567984    22.219178    7.0210506    429.05415   -21974.938 
  495700   -93814.548   -81051.044    309.94505    20724    221216.65   -72.953558    -8.431596   -330.50963    120.08055    422.23556    23.573753    22.224617    6.9198217    429.15538   -21971.875 
  495800   -93671.556    -81104.46    305.17554    20724    221081.53    68.884534    128.92439    12.753176    64.976034    421.87848    23.576523    22.227229    7.0983593    428.97684   -21929.861 
  495900   -93776.746   -81107.433    307.65776    20724    221134.09    55.937982   -35.355645    -87.70138    290.87097    421.89022    23.578998    22.229562    7.0924902    428.98271   -21928.852 
  496000   -93692.347   -81072.839     306.4483    20724    221038.35    134.11745     370.7668    26.039711    5.5458506      421.947    23.572306    22.223254    7.0641008     429.0111   -21970.561 
  496100   -93693.375   -81097.906    305.86454    20724    221021.79    25.410456    264.11988    109.42306   -297.31158    422.56643    23.554141    22.206128    6.7543835    429.32082   -21942.739 
  496200   -93773.328   -81064.853    308.60875    20724    221276.07     12.27683   -177.65546    85.667299    128.81865    422.45633    23.570757    22.221793    6.8094366    429.26576   -21967.247 
  496300   -93696.888   -80999.136    308.34836    20724    221181.46   -56.539679    118.25341    15.429713   -303.30217    422.10365     23.57556    22.226322    6.9857732    429.08943    -22032.94 
  496400   -93758.609   -81016.961    309.41434    20724       221096      46.7005    -45.05646   -67.843788    253.00175    421.58256    23.585568    22.235757    7.2463196    428.82888   -22029.143 
  496500   -93651.282    -81067.28    305.58607    20724    221142.86    13.519419    36.105042     22.73409   -18.280874    421.66567    23.585742    22.235921     7.204763    428.87044   -21973.068 
  496600   -93814.731   -81056.345    309.82078    20724    220876.08    66.784854    13.533926   -91.032814    277.85345    421.42879    23.578135    22.228749    7.3232032      428.752   -22001.811 
  496700    -93656.62   -81039.645     306.3868    20724    220939.54    35.832008   -58.195983    155.61325    10.078762    421.46603    23.580481     22.23096    7.3045867    428.77061   -22012.804 
  496800   -93627.306    -81074.58     304.8266    20724    220866.03    49.803527      88.2702    1.3737667    59.766614    421.51929    23.575068    22.225857    7.2779542    428.79725   -21985.128 
  496900   -93775.691   -81067.995    308.58986    20724    221064.01    34.045256   -22.344016    346.75016   -222.27038    421.43469    23.587999    22.238048    7.3202566    428.75494   -21986.646 
  497000    -93740.48   -81096.542    307.04155    20724    221007.49    8.9260846   -2.6605641   -141.18417    170.62299    421.55288    23.581677    22.232088    7.2611596    428.81404   -21958.271 
  497100   -93733.368   -81086.588    307.11057    20724    221085.25    65.687799    105.84373   -60.226722    151.44639     421.3632    23.591133    22.241003    7.3559976     428.7192   -21970.135 
  497200   -93830.173   -81035.074    310.71231    20724     221195.7   -85.028222    56.056134     -119.877    -191.2638    421.64005    23.589277    22.239253    7.2175751    428.85762   -22012.847 
  497300   -93731.737   -81028.744    308.47564    20724    221026.91    30.658074   -8.6926246   -235.02899    335.69584    422.11568    23.566986    22.218238    6.9797581    429.09544    -22030.59 
  497400    -93856.15   -81044.253    311.12024    20724    221076.95   -123.88428    60.641235   -287.22432   -145.06976    422.24275    23.566107    22.217409     6.916226    429.15897   -22011.829 
  497500   -93727.174   -81055.176    307.72296    20724    221216.08   -9.5946056   -14.828438    164.22022    -178.1756    421.67521     23.58938     22.23935    7.1999956     428.8752   -21999.678 
  497600   -93706.532   -81053.099    307.27213    20724    221149.49   -56.943438   -133.15792   -318.25055    280.57815     421.8259    23.581616    22.232031    7.1246489    428.95055   -22006.624 
  497700   -93722.947   -81111.991    306.24063    20724    220856.51    72.063271    26.589047    81.181056    108.41971    421.58356    23.572763    22.223684    7.2458178    428.82938   -21965.235 
  497800   -93725.155   -81061.861     307.5116    20724    220678.42   -66.106168   -36.255875   -122.06482   -39.997811     421.0754    23.577471    22.228122    7.4999023     428.5753   -22018.656 
  497900   -93682.389   -81101.437    305.51203    20724    220542.95   -26.277252   -78.425077   -26.033728     25.62705    421.13833    23.568472    22.219639    7.4684336    428.60677   -21984.942 
  498000   -93675.628   -81074.245    306.00818    20724    220686.14    12.670255    54.815153    41.437052    -58.24144    421.41925    23.568262    22.219441    7.3279767    428.74722    -22008.44 
  498100   -93742.356   -81050.444    308.20656    20724    221166.22    71.905512    194.95111     120.2157   -99.450269    421.71905    23.585495    22.235688     7.178074    428.89713   -22022.181 
  498200   -93646.925   -81090.308    304.92107    20724    221037.12    49.553924    87.776213   -17.761713    78.647273    421.58494    23.582361    22.232733    7.2451276    428.83007   -21984.254 
  498300   -93670.224   -81095.332    305.36486    20724    220807.12   -15.984044    16.186381   -79.972043    15.833531    421.54882    23.571098    22.222114    7.2631882    428.81201   -21986.547 
  498400   -93721.099   -81079.643    306.98129    20724    220921.61   -46.355136    150.92241   -242.13926   -47.848556    421.81569    23.569748    22.220842    7.1297537    428.94545   -21999.765 
  498500   -93759.689   -81074.801    308.03596    20724    220786.55    95.445086    -165.6806    167.88811    284.12775    421.53574    23.570366    22.221424    7.2697294    428.80547    -22018.45 
  498600   -93752.037   -81065.416    308.07805    20724    221155.91   -118.90274   -190.74159   -42.277463   -123.68917    421.58779    23.588617    22.238631     7.243706    428.83149   -22008.166 
  498700   -93737.194   -81059.611    307.85861    20724    221165.19   -20.680415    29.861683    15.921255   -107.82418    421.41414    23.593971    22.243679    7.3305302    428.74467   -22020.083 
  498800    -93776.66   -81070.505     308.5524    20724    221166.31    34.261723   -146.55547    -57.41103    306.75166    421.53624    23.590614    22.240514    7.2694789    428.80572   -22015.264 
  498900   -93817.866   -81084.464    309.21406    20724    221382.91    -69.34366   -35.094924   -471.60495    298.66889    421.90515    23.591842    22.241671    7.0850252    428.99017    -21989.05 
  499000   -93652.338   -81098.587     304.8515    20724    221004.92    61.170334     257.9454    192.89723   -267.33163    421.79274    23.574834    22.225637    7.1412303    428.93397   -21996.263 
  499100   -93795.453   -81033.938    309.89677    20724     221500.3   -60.744585    147.73205   -45.881659   -284.08415    422.00494    23.595305    22.244937    7.0351276    429.04007   -22038.434 
  499200   -93520.373   -81017.723    303.61058    20724    221405.95    122.21429    -15.18095   -249.53668     631.3605    421.96287    23.591455    22.241307    7.0561638    429.01904   -22067.676 
  499300   -93720.255   -81010.123      308.649    20724    221668.05    77.365026   -55.424399    278.20469    9.3147922    421.95925    23.605517    22.254564    7.0579759    429.01722   -22067.844 
  499400   -93751.981   -81013.021    309.34905    20724    221827.47    42.623435    93.743946    507.17333   -473.04697    421.98647    23.613242    22.261846    7.0443652    429.03083   -22055.626 
  499500   -93802.188     -80988.9    311.15401    20724    221846.66    30.835083   -51.381405    73.117004    70.769649     422.1159    23.610642    22.259396    6.9796483    429.09555   -22081.542 
  499600   -93746.899   -81049.221    308.34657    20724    221401.47    1.9969308    152.91506    240.40116   -387.32543     422.1563    23.585812    22.235986    6.9594496    429.11575   -22038.272 
  499700    -93864.82   -81039.058     311.4569    20724    221848.87   -74.149092    225.04717   -177.84514   -269.64931    422.59602    23.597344    22.246859    6.7395893    429.33561   -22030.663 
  499800   -93738.362   -81026.872    308.68196    20724    221115.31   -193.53676   -244.18776    -276.0457   -60.376819    422.51762    23.560484    22.212108    6.7787921    429.29641   -22070.227 
  499900   -93667.485     -81031.3    306.85329    20724     221314.9    19.700544    134.23177   -74.644956  -0.48518644    422.70729    23.565826    22.217145    6.6839546    429.39125   -22069.544 
  500000    -93772.43   -81091.352    307.94345    20724    220632.73     40.50379     25.89192    53.658097    41.961354    422.11926    23.545862    22.198323    6.9779695    429.09723   -22036.524 
Loop time of 61663.5 on 32 procs for 500000 steps with 20724 atoms

Performance: 1.401 ns/day, 17.129 hours/ns, 8.109 timesteps/s
96.3% CPU use with 32 MPI tasks x no OpenMP threads

MPI task timing breakdown:
Section |  min time  |  avg time  |  max time  |%varavg| %total
---------------------------------------------------------------
Pair    | 6519.5     | 9299.6     | 13005      |2489.5 | 15.08
Bond    | 0.34408    | 0.52979    | 0.77023    |  12.4 |  0.00
Kspace  | 16859      | 20539      | 23400      |1696.0 | 33.31
Neigh   | 8345.3     | 10159      | 12116      |1255.2 | 16.48
Comm    | 917.4      | 4064.6     | 7612.2     |4120.0 |  6.59
Output  | 7.0378     | 46.237     | 75.165     | 369.8 |  0.07
Modify  | 13877      | 17426      | 22414      |2375.1 | 28.26
Other   |            | 128.6      |            |       |  0.21

Nlocal:    647.625 ave 695 max 591 min
Histogram: 1 2 2 5 9 1 1 3 2 6
Nghost:    7476.34 ave 7813 max 7122 min
Histogram: 3 2 5 5 2 2 1 4 3 5
Neighs:    238660 ave 269136 max 208151 min
Histogram: 2 2 7 8 1 0 2 0 3 7
FullNghs:  477319 ave 542456 max 417090 min
Histogram: 2 3 8 6 1 0 2 2 3 5

Total # of neighbors = 15274222
Ave neighs/atom = 737.031
Ave special neighs/atom = 2
Neighbor list builds = 500000
Dangerous builds not checked
write_data production.R1
PPPM initialization ...
  extracting TIP4P info from pair style
WARNING: Using 12-bit tables for long-range coulomb (../kspace.cpp:316)
  G vector (1/distance) = 0.345959
  grid = 400 48 48
  stencil order = 5
  estimated absolute RMS force accuracy = 0.000400774
  estimated relative force accuracy = 1.20692e-06
  using double precision FFTs
  3d grid and FFT values/proc = 67260 38400
write_restart restartproduction.R1
PPPM initialization ...
  extracting TIP4P info from pair style
WARNING: Using 12-bit tables for long-range coulomb (../kspace.cpp:316)
  G vector (1/distance) = 0.345959
  grid = 400 48 48
  stencil order = 5
  estimated absolute RMS force accuracy = 0.000400774
  estimated relative force accuracy = 1.20692e-06
  using double precision FFTs
  3d grid and FFT values/proc = 67260 38400
Total wall time: 17:07:44
