LAMMPS (30 Jul 2016)
# Sets up LAMMPS simulation for transient melting of ice: TIP4P/Ice
# Ensure cold thermostats do not move
# Thinbox: 16x1x1
# Defects
# Order param l=2

#### setting MD parameters ####
units real
boundary p p p
atom_style full

# read ice box in restart file
### read the equilibrated NPT restart file

read_restart restart.state
  orthogonal box = (0.332825 0.0179597 0.0169318) to (435.742 23.5132 22.1676)
  32 by 1 by 1 MPI processor grid
  20736 atoms
  13824 bonds
  6912 angles
  2 = max # of 1-2 neighbors
  1 = max # of 1-3 neighbors
  1 = max # of 1-4 neighbors
  2 = max # of special neighbors


#### force field definition ####
pair_style      lj/cut/tip4p/long 2 1 1 1 0.1577 10.0
pair_modify	tail yes

kspace_style	pppm/tip4p 1.0e-6

bond_style	harmonic
angle_style	harmonic
dihedral_style	none
improper_style	none

bond_coeff	1 450.0 0.9572
angle_coeff	1 55.0 104.52


# reset pair coeff
pair_coeff	* * 0.0 0.0

#OO
pair_coeff	2 2 0.21085 3.1668
#OH
pair_coeff	* 1 0.0000 0.0000

neighbor        2.0 bin
neigh_modify    every 1 delay 1 check no

timestep	2.0
fix		constraints all shake 0.000001 20 0 b 1 a 1
  0 = # of size 2 clusters
  0 = # of size 3 clusters
  0 = # of size 4 clusters
  6912 = # of frozen angles

group water type 1 2
20736 atoms in group water

#*********** SIMULATION PARAMETER TO ADJUST ****************
#Box dimensions
variable lx equal lx
variable ly equal ly
variable lz equal lz

### Temperature of the hot and cold regions ####
variable thi equal 375
variable tlo equal 215
variable runpressure equal 0.986923


# Configuration equilibrated in density and temperature

# Define dx here

variable lx equal lx
variable ly equal ly
variable lz equal lz

variable xlo equal xlo
variable xhi equal xhi

variable boxcentre equal ${xlo}+(${xhi}-${xlo})/2
variable boxcentre equal 0.332824533780663+(${xhi}-${xlo})/2
variable boxcentre equal 0.332824533780663+(435.742375466219-${xlo})/2
variable boxcentre equal 0.332824533780663+(435.742375466219-0.332824533780663)/2

variable dx equal 2.0

#### ADD IN DEFECTS AT THE CENTRE OF THE HOT THERMOSTAT #####
variable y1 equal ${ly}/2.0
variable y1 equal 23.4952806875997/2.0
variable z1 equal ${lz}/2.0
variable z1 equal 22.1506363642337/2.0

region kill1 sphere ${boxcentre} ${y1} ${z1} 3
region kill1 sphere 218.0376 ${y1} ${z1} 3
region kill1 sphere 218.0376 11.7476403437998 ${z1} 3
region kill1 sphere 218.0376 11.7476403437998 11.0753181821169 3
delete_atoms region kill1 compress no bond yes mol yes
Deleted 12 atoms, new total = 20724
Deleted 8 bonds, new total = 13816
Deleted 4 angles, new total = 6908
############


variable thip equal ${thi}*2.0/3.0
variable thip equal 375*2.0/3.0
variable tlop equal ${tlo}*2.0/3.0
variable tlop equal 215*2.0/3.0
variable hbl equal ${boxcentre}-${dx}
variable hbl equal 218.0376-${dx}
variable hbl equal 218.0376-2
variable hbh equal ${boxcentre}+${dx}
variable hbh equal 218.0376+${dx}
variable hbh equal 218.0376+2

#***************************************************
## EQUILIBRATION PERIOD - to reach the steady state ###
#run 0

#reset the timestep to start your production run
reset_timestep 0

# define a group to perform averages
#group s1 type 1
###*** SYSTEM THERMOSTATTING: HOT and COLD regions ***###

fix NVE all nve
fix PRESS all press/berendsen aniso ${runpressure} ${runpressure} 500000 couple yz
fix PRESS all press/berendsen aniso 0.986923 ${runpressure} 500000 couple yz
fix PRESS all press/berendsen aniso 0.986923 0.986923 500000 couple yz


### Apply THERMOSTATS ###

#set up the "hot region" in the middle of the box
region hot block ${hbl} ${hbh} 0 ${ly} 0 ${lz} units box
region hot block 216.0376 ${hbh} 0 ${ly} 0 ${lz} units box
region hot block 216.0376 220.0376 0 ${ly} 0 ${lz} units box
region hot block 216.0376 220.0376 0 23.4952806875997 0 ${lz} units box
region hot block 216.0376 220.0376 0 23.4952806875997 0 22.1506363642337 units box


#set up the "cold region" at the left end of the box
#region cold block ${cbl} ${cbh} 0 ${ly} 0 ${lz} units box

#set up the "cold region" at the right end of the box
#region cold2 block ${h2bl} ${xhi} 0 ${ly} 0 ${lz} units box


#Cold regions  unification
#region cold union 2 cold1 cold2 units box

#Create group of cold molecules
####group cool_ice region cold
####group cool_ice include molecule

####compute cold_temp cool_ice temp
####fix cold_rescale water temp/rescale 1 ${tlo} ${tlo} 0.0001 1.0
####fix_modify cold_rescale temp cold_temp

#this calculates the temperature using only the atoms in the "hot region"
#compute hot_temp all temp/region hot

# calculate the temperature using only WATER in the "hot region"
compute hot_temp water temp/region hot

#this calculates the temperature using only WATER in the "cold region"
#compute cold_temp water temp/region cold


#set up a basic velocity rescale for the hot region WATER with thip
fix hot_rescale water temp/rescale 1 ${thip} ${thip} 1.0 1.0
fix hot_rescale water temp/rescale 1 250 ${thip} 1.0 1.0
fix hot_rescale water temp/rescale 1 250 250 1.0 1.0
#change the thermostat to only act on the "hot region"
#this is done by passing it the "hot temp" compute that we defined above
fix_modify hot_rescale temp hot_temp

#set up a basic velocity rescale for the cold region
#fix cold_rescale water temp/rescale 1 ${tlop} ${tlop} 1.0 1.0
#change the thermostat to only act on the "cold region"
#this is done by passing it the "cold temp" compute that we defined above
#fix_modify cold_rescale temp cold_temp

### Ensure MOMENTUM CONSERVATION ###

#ensure that linear momentum is conserved despite the "thermostatting" by velocity rescaling
fix cons_mom all momentum 1 linear 1 1 1


thermo 100
thermo_style custom step pe etotal temp atoms vol press pxx pyy pzz lx ly lz xlo xhi  f_hot_rescale

group ox type 2
6908 atoms in group ox
group hy type 1
13816 atoms in group hy
compute KE all ke/atom
variable TEMP atom c_KE*4186.8/(1.3806488*6.02214129)

compute cc1 all chunk/atom bin/1d x center 2 units box
#fix TPROFILE all ave/chunk 1 500 500 cc1 v_TEMP density/number file temp.dat
fix TPROFILEox ox ave/chunk 1 500 500 cc1 v_TEMP density/number file temp-ox.dat
fix TPROFILEhy hy ave/chunk 1 500 500 cc1 v_TEMP density/number file temp-hy.dat

compute orderparam ox orientorder/atom degrees 1 2 nnn 4 cutoff 3.5
compute cc2 ox chunk/atom bin/1d x center 2 units box
#fix ORDERPARAM all ave/chunk 1 500 500 cc2 c_orderparam[1] file order-param.dat
fix ORDERPARAM all ave/chunk 1 500 500 cc2 c_orderparam[1] file order-param.dat

restart 50000 config.restart

run 500000
PPPM initialization ...
  extracting TIP4P info from pair style
WARNING: Using 12-bit tables for long-range coulomb (../kspace.cpp:316)
  G vector (1/distance) = 0.345573
  grid = 405 48 48
  stencil order = 5
  estimated absolute RMS force accuracy = 0.000406496
  estimated relative force accuracy = 1.22415e-06
  using double precision FFTs
  3d grid and FFT values/proc = 67260 38880
Neighbor list info ...
  2 neighbor list requests
  update every 1 steps, delay 1 steps, check no
  max neighbors/atom: 2000, page size: 100000
  master list distance cutoff = 12.3154
  ghost atom cutoff = 12.3154
  binsize = 6.1577 -> bins = 71 4 4
Memory usage per processor = 12.7933 Mbytes
Step PotEng TotEng Temp Atoms Volume Press Pxx Pyy Pzz Lx Ly Lz Xlo Xhi hot_resc 
       0   -103845.58   -95051.461    213.55372    20724    226602.55   -209.99198    -276.4177   -257.51201   -96.046225    435.40955    23.495281    22.150636   0.33282453    435.74238            0 
     100   -103685.13   -94802.339    215.70701    20724     226407.9    7.4919913   -13.979164   -32.559862       69.015    435.20898    23.490598    22.146222   0.43311172    435.64209   -259.27086 
     200   -103692.67   -94788.671    216.22211    20724    226295.38   -37.371364    44.716972   -195.56738     38.73631    434.92434    23.492444    22.147962   0.57543088    435.49977   -273.92661 
     300   -103630.27   -94701.879    216.81424    20724    226330.87   -20.999778   -115.41445    73.364099   -20.948986    435.04927    23.490913    22.146518   0.51296731    435.56223   -360.35877 
     400    -103710.7   -94692.224    219.00198    20724    226417.93    7.5648449    81.570143   -114.92207    56.046462    435.13469    23.493124    22.148603   0.47025629    435.60494   -370.80337 
     500    -103563.5   -94626.028    217.03493    20724    226354.21    11.038485    32.519226    -304.2405    304.83673     435.0972     23.49083     22.14644   0.48900113     435.5862   -439.07036 
     600   -103512.28   -94572.111    217.10026    20724    226337.52   -7.7209424   -40.595449    41.178423   -23.745801    435.20759    23.486985    22.142815   0.43380469     435.6414   -492.26805 
     700   -103604.84   -94534.824    220.25342    20724    226338.05   -36.609542   -90.147581   -13.387325   -6.2937203    435.15946    23.488311    22.144065   0.45787176    435.61733   -531.32059 
     800   -103616.29   -94501.809    221.33328    20724    226408.31   -59.248126   -154.41687   -28.138576    4.8110735     435.1258    23.492865    22.148359   0.47470181     435.6005   -561.68779 
     900   -103565.34   -94503.354    220.05849    20724    226462.38    15.177144    136.66606    148.11423   -239.24886    435.05943    23.497462    22.152693   0.50788683    435.56731   -564.35673 
    1000   -103519.98   -94467.267    219.83346    20724    226375.33     25.27792    145.75589   -33.627755   -36.294378    435.20074    23.489131    22.144839   0.43723224    435.63797   -602.62154 
    1100   -103492.92   -94416.253    220.41491    20724    226441.41    27.671828    113.58462   -79.345646    48.776511    435.27203    23.490635    22.146256    0.4015826    435.67362   -652.48134 
    1200   -103424.21   -94388.989    219.40847    20724    226548.68     38.15242    67.897417   -156.23985    202.79969     435.3927    23.492943    22.148432   0.34125244    435.73395   -677.12788 
    1300   -103503.64   -94338.342    222.56721    20724    226534.25   -19.591109   -225.36224    186.86155   -20.272634    435.36575    23.492921    22.148412   0.35472697    435.72047   -727.84085 
    1400   -103417.81   -94308.311    221.21219    20724    226447.68    69.902869   -41.423697    231.44974     19.68256    435.37577    23.488162    22.143925   0.34971684    435.72548   -764.00164 
    1500   -103482.12   -94288.861    223.24635    20724     226513.8   -61.060326    57.676592   -32.692616   -208.16495    435.18673    23.496692    22.151967   0.44423563    435.63096   -776.92661 
    1600    -103361.5   -94260.825    220.99809    20724    226533.48    22.960765     1.533874   -33.251658    100.60008    435.38962    23.492237    22.147767   0.34278936    435.73241   -809.49535 
    1700   -103394.77   -94216.375    222.88547    20724    226697.54   -109.34313   -251.79794   -13.976194   -62.255261    435.45418       23.499    22.154143   0.31051235    435.76469    -845.2488 
    1800   -103450.78    -94232.39     223.8565    20724    226330.08    42.430371    186.16791   -100.10326    41.226462    435.15282    23.488077    22.143845   0.46119173    435.61401    -847.4259 
    1900   -103290.49   -94212.318    220.45167    20724    226622.07    78.923623    -4.138204    176.79605    64.113021    435.30987    23.498983    22.154126   0.38266565    435.69253   -861.33597 
    2000    -103332.1   -94188.669    222.03642    20724    226490.23    15.374644   -57.384436   -114.30648    217.81484    435.27299    23.493141     22.14862   0.40110684    435.67409   -888.46149 
    2100    -103302.4   -94166.333    221.85739    20724    226540.38    12.802203    76.331617   -139.63045    101.70544    435.23207    23.496847    22.152113   0.42156484    435.65364   -909.51843 
    2200   -103239.67   -94133.335    221.13544    20724    226448.45     39.28229   -51.433994     279.6944   -110.41354    435.34714    23.488974     22.14469   0.36402931    435.71117   -944.83163 
    2300   -103346.39   -94106.977    224.36704    20724    226585.94   -43.287225   -84.813668   -18.646537   -26.401471    435.33198    23.496513    22.151798   0.37161117    435.70359   -966.08727 
    2400   -103271.98   -94093.202    222.89467    20724    226474.28    52.492466    92.253192   -212.27063    277.49483    435.30984     23.49132    22.146902   0.38268243    435.69252   -988.40113 
    2500   -103278.29   -94102.299    222.82706    20724    226619.66   -27.865256    53.741573   -79.237532   -58.099808    435.44873     23.49511    22.150476   0.31323264    435.76197   -971.96365 
    2600   -103318.56   -94103.775    223.76915    20724    226514.11   -34.524824     -138.761    42.521198   -7.3346725    435.39275    23.491148     22.14674   0.34122459    435.73398   -974.89248 
    2700   -103218.69   -94035.778    222.99499    20724    226624.88   -18.549281   -105.46563   -78.430236    128.24803    435.35933    23.497793    22.153005   0.35793511    435.71726   -1040.1161 
    2800   -103306.71   -94011.797    225.71494    20724    226597.53   -6.0609975    177.01827    -110.0462   -85.155064    435.53785     23.49156    22.147128    0.2686773    435.80652   -1065.2552 
    2900   -103230.44   -93994.613    224.27992    20724    226569.01    7.7882824   -150.70996   -123.40659    297.48141    435.38934    23.494087    22.149511   0.34293246    435.73227   -1083.8009 
    3000   -103294.02   -93962.368    226.60691    20724    226602.54   -56.142829    102.97097    53.681084   -325.08054    435.51915    23.492323    22.147848   0.27802251    435.79718    -1116.867 
    3100      -103153   -93890.896    224.91821    20724    226647.52   -17.159426   -20.111637     -73.3639    41.997259    435.61539     23.49206      22.1476   0.22990506    435.84529   -1188.1754 
    3200   -103203.44   -93878.846    226.43564    20724    226645.16   -37.656654    51.597255    6.1280538   -170.69527    435.30669    23.500266    22.155336   0.38425668    435.69094     -1199.52 
    3300   -103154.65   -93836.665    226.27503    20724    226769.23    43.457861    97.586107    54.964033   -22.176556    435.32147    23.506298    22.161023   0.37686368    435.69834   -1244.0288 
    3400   -103086.86   -93813.121    225.20064    20724    226784.21   -55.110665    34.513592    -146.1743   -53.671286    435.63962    23.498489    22.153661   0.21778873    435.85741   -1262.6763 
    3500   -103102.43   -93779.912    226.38509    20724    226934.84    75.982415    155.14686    21.659463    51.140925    435.68369    23.505102    22.159896    0.1957538    435.87945   -1297.9181 
    3600   -103165.98   -93806.334    227.28678    20724    226665.79   -35.587325   -21.680285    91.026644   -176.10833    435.30734    23.501317    22.156328      0.38393    435.69127   -1275.4785 
    3700   -103057.46   -93762.052    225.72691    20724    226713.83   -48.196867     140.8966   -300.76945    15.282249    435.36993    23.502118    22.157082   0.35263568    435.72256   -1317.6546 
    3800   -103148.67   -93784.934    227.38603    20724    226737.23   -36.120601   -101.25803   -23.915277    16.811501    435.43413    23.501598    22.156592   0.32053473    435.75467   -1296.6536 
    3900   -103162.49   -93740.646    228.79714    20724    226751.97   -7.0074852   -26.432689    145.79756   -140.38733    435.47115    23.501363    22.156371   0.30202725    435.77317   -1343.7545 
    4000   -102965.41   -93734.371    224.16381    20724    226687.29    44.345052    140.50007    100.86301   -108.32793    435.63284     23.49365    22.149099   0.22118046    435.85402   -1351.9965 
    4100   -103004.17   -93749.713    224.73255    20724    226747.78    26.671662    40.581109   -296.56984    336.00372    435.57043    23.498468    22.153641   0.25238621    435.82281   -1337.3581 
    4200   -103026.09   -93726.467    225.82922    20724    226640.84    23.325387    19.235074    60.533674   -9.7925876    435.48908     23.49512    22.150485   0.29306126    435.78214   -1363.8133 
    4300   -103098.54   -93742.033    227.21054    20724    226748.99    18.476102   -93.973005    190.35501   -40.953696    435.38546    23.503522    22.158406   0.34487247    435.73033   -1346.9403 
    4400   -102958.41   -93687.039    225.14314    20724    226630.55    -10.13833    87.785967    107.66086   -225.86181    435.46739    23.495172    22.150534   0.30390468     435.7713   -1403.0426 
    4500   -103005.08    -93680.87    226.42621    20724    226656.61    16.750324    30.846335    60.777414   -41.372776    435.40729    23.498144    22.153336   0.33395614    435.74124   -1410.2558 
    4600   -103043.49   -93701.612    226.85526    20724    226548.59   -19.237333   -61.537853   -103.59053    107.41638    435.36956    23.493562    22.149016   0.35281871    435.72238   -1392.7564 
    4700   -103067.62   -93646.838    228.77144    20724    226758.86    13.287123    65.554203   -102.42842     76.73559    435.38917    23.503933    22.158793   0.34301426    435.73219    -1445.262 
    4800   -103006.45   -93627.118    227.76481    20724    226671.97    65.111347    54.147012   -10.612078    151.79911    435.43585    23.498169     22.15336    0.3196733    435.75553   -1469.7841 
    4900    -103006.2   -93626.098    227.78366    20724    226693.15   -22.233619    -123.0404     61.63366   -5.2941109    435.49847    23.497578    22.152802   0.28836715    435.78683   -1466.3065 
    5000   -102963.44    -93619.32    226.90977    20724    226524.07    32.490654    41.470003    203.97165   -147.96969    435.39382    23.491636      22.1472   0.34068919    435.73451   -1479.2919 
    5100   -103032.98   -93616.394    228.66949    20724    226491.35    2.3660784    8.5704619    58.033253   -59.505479    435.10677    23.497687    22.152905   0.48421529    435.59098   -1485.1491 
    5200    -103032.4   -93633.966    228.22877    20724    226606.68     91.97266     219.9351   -138.04889    194.03177    435.32312    23.497827    22.153037   0.37603942    435.69916   -1471.6321 
    5300   -102957.66   -93611.242     226.9657    20724    226539.81   -9.0581071     44.51279   -355.10648    283.41937    435.26091    23.496038    22.151351   0.40714276    435.66806   -1489.7942 
    5400   -102945.64   -93552.057    228.11101    20724    226553.73    -33.28839   -146.91311   -109.26367    156.31161    435.33473    23.494768    22.150153   0.37023298    435.70497   -1548.2629 
    5500   -102952.97   -93575.635    227.71637    20724     226685.7    97.577943    161.58753    426.56648   -295.42018    435.37712    23.500466    22.155525   0.34903766    435.72616    -1528.446 
    5600   -102971.29   -93553.265     228.7045    20724    226566.06   -22.295749   -39.273016    132.20892   -159.82315      435.499    23.490976    22.146578    0.2880986     435.7871   -1549.5603 
    5700   -103044.63   -93539.468     230.8206    20724    226789.22   -23.529215    64.912628   -130.07234    -5.427929    435.40402    23.505105    22.159898   0.33558931    435.73961   -1559.3145 
    5800   -102941.75   -93562.786    227.75594    20724    226600.76    46.601669   -75.370558   -99.033616    314.20918    435.12005    23.503002    22.157916   0.47757498    435.59763   -1545.1667 
    5900    -102904.6   -93506.134     228.2294    20724    226633.43    97.329866    78.210577    26.945227    186.83379    435.16418    23.503505     22.15839   0.45550851    435.61969   -1603.1084 
    6000   -103013.42   -93488.342    231.30421    20724    226791.35   -26.048352    28.492228    46.961527   -153.59881    435.49147    23.502856    22.157778   0.29186376    435.78334   -1613.2865 
    6100   -102841.82   -93453.579    227.98113    20724    226770.28    83.711729    142.66713    195.74834   -87.280286    435.28344    23.507379    22.162042   0.39588129    435.67932   -1654.5769 
    6200   -102963.34   -93432.579     231.4422    20724    226812.61    8.1702762     54.07051    121.51145   -151.07113    435.31059     23.50884     22.16342    0.3823053    435.69289   -1670.5814 
    6300   -102897.42   -93446.162    229.51152    20724    226877.93   -16.364167   -138.94214   -79.183577    169.03322    435.60942    23.504159    22.159006   0.23289215    435.84231   -1656.8703 
    6400    -102921.9   -93426.062    230.59395    20724    226826.77    59.856821    -97.94521   -131.19906    408.71473    435.36685    23.508055    22.162679   0.35417722    435.72102   -1684.6165 
    6500   -102908.82    -93443.41    229.85524    20724    226746.25   -83.854274   -45.163777   -201.83888   -4.5601673    435.33275    23.504802    22.159613   0.37122317    435.70398   -1662.6166 
    6600   -102967.33   -93409.331    232.10352    20724    226785.62   -57.153432   -146.20318    246.74971   -272.00683    435.65983    23.498017    22.153216   0.20768462    435.86752   -1697.8621 
    6700   -102938.25   -93411.289    231.34976    20724    226672.48    20.195414   -100.94223    59.410435    102.11804    435.41798    23.498678    22.153839    0.3286084    435.74659   -1703.1448 
    6800   -102887.54   -93384.651     230.7654    20724     226700.6    47.118199   -79.178405    79.176256    141.35675    435.39218    23.500832     22.15587   0.34151201    435.73369   -1732.8248 
    6900   -102892.28   -93384.486    230.88437    20724    226651.89    18.077417    128.40895   -169.92936    95.752662    435.25199    23.502091    22.157057   0.41160311     435.6636   -1733.4114 
    7000    -102839.3   -93367.154    230.01875    20724    226718.75    27.194155   -71.994972    295.33081   -141.75338    435.53471    23.497927    22.153131   0.27024731    435.80495   -1748.6238 
    7100    -102806.1   -93325.064    230.23452    20724    226748.96    28.911548   -72.654144    87.222504    72.166283    435.42587    23.502429    22.157376   0.32466468    435.75054   -1792.4167 
    7200   -102784.71   -93358.147    228.91189    20724    226636.55    40.875507   -105.17959   -61.383012    289.18912    435.17117    23.503478    22.158365   0.45201451    435.62319   -1762.4384 
    7300    -102805.2   -93333.351    230.01156    20724    226910.65   -19.046627    -39.40398   -148.29258    130.55668    435.49466    23.508951    22.163524   0.29027028    435.78493   -1778.8921 
    7400   -102857.36   -93290.193    232.32626    20724    226768.22    7.7403248    -12.81059    183.14518   -147.11362    435.62274    23.498116    22.153309   0.22623159    435.84897   -1829.2346 
    7500   -102779.66   -93331.803    229.42885    20724    226722.95   -7.3192784   -69.204277    34.397901    12.848541    435.30617    23.504312    22.159151   0.38451505    435.69068   -1790.4425 
    7600   -102820.31   -93256.284    232.24984    20724    226706.47   -17.264349    94.944563   -44.319806    -102.4178    435.12054    23.508471    22.163072    0.4773316    435.59787   -1864.9844 
    7700   -102796.67    -93259.76    231.59155    20724    226652.73   -5.5984106    19.601759     -10.3549   -26.042091     435.2621    23.501862    22.156841   0.40655202    435.66865   -1865.0073 
    7800   -102861.53   -93271.307    232.88599    20724    226722.23   -131.34474     -83.1657   -286.72084   -24.147671    435.41538    23.501327    22.156337   0.32990934    435.74529   -1845.7488 
    7900   -102812.21   -93254.895    232.08696    20724    226732.59   -45.352879    6.5251943   -12.063255   -130.52058    435.44539    23.501054    22.156079   0.31490254     435.7603   -1867.8471 
    8000   -102887.64   -93293.315    232.98565    20724    226730.95   -46.587374   -81.491493    64.846429   -123.11706    435.48853    23.499805    22.154902   0.29333405    435.78187   -1829.8729 
    8100   -102852.65   -93282.158    232.40697    20724    226708.31    24.160511    115.53578    95.235669   -138.28992    435.49391    23.498486    22.153659   0.29064571    435.78455    -1846.167 
    8200   -102753.71   -93255.135    230.66055    20724    226661.82     12.52652   -98.489211    32.429986    103.63879    435.39604    23.498718    22.153877   0.33958059    435.73562   -1873.1477 
    8300   -102745.89    -93228.07    231.12789    20724    226591.16    25.797497   -177.54164    99.688987    155.24514    435.53733    23.491243     22.14683   0.26893609    435.80626   -1904.0818 
    8400   -102852.25   -93230.131    233.66061    20724    226797.79   -21.261056   -84.509397    -29.49249    50.218718    435.65863     23.49868    22.153841   0.20828516    435.86691   -1898.0197 
    8500   -102756.86   -93246.586     230.9445    20724    226754.77   -5.0512287   -24.789217   -87.429346    97.064877    435.55659    23.499203    22.154335   0.25930657    435.81589   -1883.1917 
    8600   -102785.73   -93221.559    232.25349    20724    226748.69   -74.807367     72.78987   -295.15318   -2.0587881    435.65613    23.496203    22.151506   0.20953287    435.86567    -1905.241 
    8700   -102722.32   -93191.549    231.44223    20724    226821.15   -5.9052312   -11.369997    236.64415   -242.98985     435.7307    23.497947     22.15315      0.17225    435.90295   -1936.5982 
    8800   -102787.57   -93218.851     232.3638    20724    226786.41   -39.896371   -125.34416    77.135228   -71.480185    435.30129    23.507733    22.162376   0.38695529    435.68824   -1909.6491 
    8900    -102812.6   -93221.556    232.90605    20724    226789.79   0.17983769   -158.03043    11.532744     147.0372    435.41116    23.504942    22.159745   0.33202093    435.74318     -1911.46 
    9000   -102747.72   -93178.727    232.37063    20724    226642.19    20.723671    106.04226   -204.16856    160.29732    435.37957    23.498144    22.153336   0.34781526    435.72738   -1958.7984 
    9100   -102705.31   -93126.485     232.6092    20724    226657.48   -1.9444525    152.47643   -50.712984    -107.5968    435.24499     23.50257    22.157508    0.4151042     435.6601   -2011.3823 
    9200   -102691.54   -93097.392    232.98148    20724    226645.43    2.2506669    213.74249    23.110969   -230.10146    435.26263    23.501469    22.156471   0.40628621    435.66891   -2041.3888 
    9300   -102732.95   -93098.521     233.9596    20724    226847.37   -10.276075    69.277575   -183.21854    83.112738    435.63473    23.501893     22.15687   0.22023474    435.85497    -2034.974 
    9400   -102683.35   -93060.551    233.67722    20724    226674.97   -100.09995   -131.14658   -31.139027   -138.01423    435.57865    23.494473    22.149875   0.24827608    435.82692   -2074.5398 
    9500   -102614.52   -93037.919    232.55523    20724    226563.33    40.209634    26.688817    300.09755   -206.15747    435.24901     23.49758    22.152804   0.41309385    435.66211   -2108.4903 
    9600   -102614.19   -93044.411    232.38959    20724    226811.51    8.4755886    196.75856   -97.210862   -74.120937    435.50783    23.503459    22.158346   0.28368324    435.79152   -2094.0459 
    9700   -102687.18   -93038.617    234.30277    20724    226574.36    -36.83871    24.129651   -191.32104    56.675261    435.34972    23.495434     22.15078   0.36274196    435.71246   -2105.2728 
    9800   -102681.82   -93029.031    234.40538    20724    226840.61    27.513898   -119.63679    106.13399    96.044492    435.53442    23.504249    22.159091   0.27038908    435.80481    -2112.074 
    9900   -102626.41   -93033.883     232.9419    20724    226678.94    85.399512    19.018207    303.26011   -66.079785    435.43832    23.498464    22.153638   0.31843986    435.75676   -2113.5179 
   10000    -102698.8   -93073.492    233.73815    20724    226703.06   -18.905054    26.833959    103.99728    -187.5464    435.39287    23.500941    22.155973   0.34116331    435.73404   -2070.4575 
   10100   -102671.19   -93037.588    233.93949    20724    226755.08    -23.76519    71.728971   -111.26175    -31.76279     435.5567    23.499216    22.154347   0.25925093    435.81595   -2105.8587 
   10200   -102677.57   -93029.707     234.2857    20724    226765.77     14.71486    46.665705     13.27651   -15.797634    435.58661    23.498964    22.154109   0.24429722     435.8309   -2118.1143 
   10300   -102675.46   -93037.839    234.03702    20724    226751.06   -3.1173303     149.6392    138.89711    -297.8883    435.47637    23.501176    22.156194   0.29941669    435.77578   -2107.6915 
   10400   -102635.87   -93027.294     233.3318    20724    226677.89   -7.2436613   -56.393792    60.525795   -25.862987    435.41211    23.499117    22.154253   0.33154584    435.74365   -2120.3124 
   10500   -102602.12    -93003.33    233.09421    20724    226709.31    74.668765    102.18368    155.35327   -33.530656    435.57272    23.496412    22.151703   0.25123769    435.82396   -2147.2625 
   10600   -102609.12   -92971.668    234.03293    20724    226656.29   -74.555798   -41.642923    6.0800703   -188.10454    435.50474    23.495498    22.150841   0.28522757    435.78997   -2177.2355 
   10700   -102546.36   -92925.249    233.63622    20724    226809.78     57.32516    27.145843    232.38217   -87.552538    435.71783    23.497705    22.152922   0.17868729    435.89651   -2224.5737 
   10800   -102493.88   -92959.677    231.52562    20724    226826.21    51.739552    157.13687    133.42615   -135.34435    435.67453    23.499723    22.154825   0.20033404    435.87487   -2190.5065 
   10900   -102648.05    -92946.14    235.59822    20724    226705.99   -14.294057   -216.77218    7.0438426    166.84616    435.22144    23.505721    22.160479   0.42687963    435.64832   -2205.1517 
   11000   -102601.15   -92937.038    234.68048    20724    226768.43    82.144215    93.851559   -84.020652    236.60174    435.34098    23.505729    22.160487   0.36710771    435.70809   -2217.7936 
   11100   -102538.28    -92922.45    233.50798    20724    226724.89   -29.942078   -241.40005    113.93005    37.643756    435.22394    23.506633    22.161339   0.42563198    435.64957    -2231.262 
   11200   -102631.74   -92907.325    236.14474    20724    226733.62    32.431215   -58.974447    63.829485    92.438606    435.25126    23.506348     22.16107    0.4119707    435.66323   -2250.2452 
   11300   -102541.13   -92944.061    233.05222    20724    226754.38    74.797106     138.3135   -28.235387    114.31321    435.24981    23.507463    22.162122   0.41269555     435.6625   -2214.6886 
   11400   -102545.59   -92936.806    233.33685    20724    226555.43     27.10718   -60.429887   -60.476594    202.22802    435.08498    23.501599    22.156593   0.49511127    435.58009   -2226.0235 
   11500    -102588.5   -92926.366    234.63236    20724    226900.38    39.008312    88.709735     99.97041   -71.655208    435.09074    23.519328    22.173307   0.49222971    435.58297   -2230.6249 
   11600   -102536.33   -92916.968    233.59375    20724    226845.99     -43.1943     141.1587    -117.8741    -152.8675    435.27532    23.511522    22.165948   0.39994083    435.67526   -2236.1263 
   11700   -102552.72   -92879.979    234.89005    20724    226773.76    2.4128137    11.033747    9.4422403   -13.237546    435.23513    23.508864    22.163442   0.42003455    435.65517   -2279.9385 
   11800    -102593.7   -92883.569     235.7979    20724    226770.93   -48.912849   -66.463256   -229.90832    149.63302    435.19879    23.509699    22.164229   0.43820691    435.63699   -2275.3201 
   11900   -102416.85   -92821.404    233.01279    20724    226669.28     93.19041    149.25162    139.05773   -8.7381173    435.02752    23.509055    22.163623    0.5238382    435.55136   -2345.5404 
   12000   -102522.52   -92828.669    235.40257    20724    226785.04   -21.159785     39.35776   -261.68605    158.84894    435.41634    23.504556    22.159381   0.32942844    435.74577   -2331.7273 
   12100   -102488.44   -92847.153    234.12609    20724    226614.62     34.88444   -21.786602    263.21253   -136.77261    435.26283    23.499866    22.154959   0.40618617    435.66901   -2322.0146 
   12200   -102464.82   -92802.304    234.64162    20724       226804   -35.349348    233.56773    -71.00867    -268.6071    435.29645    23.508775    22.163359   0.38937335    435.68583   -2359.5809 
   12300   -102509.86   -92782.482    236.21672    20724    226900.38    11.714552    165.48426   -175.56073    45.220119    435.33823    23.512641    22.167003   0.36848317    435.70672   -2381.1342 
   12400   -102434.43   -92799.286    233.97701    20724    226554.33   -88.446654    59.276321   -380.18934    55.573056    435.40561    23.492887    22.148379    0.3347957     435.7404   -2369.5525 
   12500   -102372.13   -92742.595    233.84068    20724    226923.61    113.36785    80.364626  0.073392206    259.66552    435.54485    23.508267    22.162879   0.26517564    435.81002   -2426.1864 
   12600   -102407.69   -92730.588    234.99587    20724     226566.8   -44.337097   -99.602407   -188.40701    154.99812    435.33544    23.495427    22.150774    0.3698781    435.70532   -2441.9765 
   12700   -102439.32   -92732.571    235.71586    20724    226737.96     37.05168    134.51049   -72.471136    49.115688    435.23809    23.506928    22.161617   0.41855523    435.65664   -2441.1842 
   12800   -102386.55   -92706.959    235.05617    20724    226582.52   -129.63419   -129.85945    -30.41544   -228.62767    435.20676    23.499715    22.154817   0.43422026    435.64098   -2463.3185 
   12900   -102504.13   -92704.185    237.97879    20724    226582.53    57.546813    311.55902    215.98817   -354.90675    435.22885    23.499119    22.154255    0.4231762    435.65202   -2477.6605 
   13000   -102405.69   -92647.256    236.97078    20724    226677.74    17.553135    13.079632    79.080951   -39.501177    435.16559    23.505765     22.16052   0.45480523    435.62039   -2529.9178 
   13100   -102386.26   -92697.374    235.28208    20724    226443.74    36.697748  0.098623523    58.927111    51.067508    434.88118     23.50131     22.15632   0.59700987    435.47819   -2489.1076 
   13200   -102398.33   -92660.082    236.48056    20724    226740.43   -47.254767    -113.3162   -264.22582    235.77772    435.28583    23.505767    22.160523     0.394686    435.68051   -2513.8761 
   13300   -102436.11   -92641.392    237.85196    20724    226497.36   -77.390218   -30.104567   -258.98816    56.922071    434.87226    23.504333    22.159171   0.60146797    435.47373   -2540.6866 
   13400   -102304.41   -92657.905    234.25277    20724    226618.06   -7.0137844   -10.995603   -66.386659    56.340909    434.88935    23.510133    22.164639   0.59292466    435.48228   -2523.1805 
   13500   -102331.45   -92677.721    234.42812    20724     226356.1    5.7025172    284.94681    78.694343    -346.5336    435.06299    23.491851    22.147403   0.50610636    435.56909    -2513.028 
   13600   -102420.38   -92645.451    237.37147    20724    226705.21   -22.000435   -119.83186   -41.737596    95.568148    435.31577    23.503133     22.15804    0.3797141    435.69549   -2535.8299 
   13700   -102412.85   -92646.407    237.16525    20724    226640.68    25.806573   -28.326011    180.75746   -75.011725    434.97395     23.50902    22.163589   0.55062447    435.52458   -2540.6942 
   13800   -102391.59   -92654.386    236.45528    20724    226547.35   -3.2186259   -72.108438    5.8910339    56.561526    434.62813    23.513528    22.167839    0.7235367    435.35166   -2533.6024 
   13900   -102391.99   -92652.177    236.51875    20724    226581.35   -6.0523778   -84.256046   -340.61201    406.71092    434.96263    23.506248    22.160976   0.55628623    435.51891   -2536.9483 
   14000   -102366.11   -92674.799    235.34096    20724    226412.43   -16.312909   -6.9659615   -363.39795    321.42518    435.00847    23.496246    22.151547    0.5333652    435.54183   -2519.3678 
   14100   -102332.59   -92622.281    235.80213    20724    226475.62     39.69393   -52.119967   -109.87957    281.08133    434.90616    23.502289    22.157244   0.58452002    435.49068   -2572.8258 
   14200   -102327.56   -92594.123    236.36393    20724    226601.52   -11.723177    141.83116   -170.29856    -6.702125    434.60535    23.516955     22.17107   0.73492539    435.34027   -2596.1429 
   14300   -102339.31   -92589.483    236.76175    20724    226452.39   -10.836608   -82.247049   -64.641511    114.37873    434.68912     23.50695    22.161638   0.69303798    435.38216   -2609.0167 
   14400   -102317.99   -92576.784    236.55251    20724    226535.92   -44.131164    58.346992    180.55446   -371.29494    434.82737    23.507547      22.1622   0.62391306    435.45129   -2615.5074 
   14500   -102256.13   -92549.209    235.71987    20724    226658.05    9.1592288    92.964217    163.42885   -228.91538    434.95343    23.510475    22.164961   0.56088405    435.51432   -2644.6665 
   14600   -102309.65   -92546.384    237.08816    20724    226658.99   -32.567277    38.898378   -104.74773   -31.852484    435.06481    23.507514     22.16217   0.50519339    435.57001   -2647.1034 
   14700   -102246.87   -92519.891    236.20707    20724    226635.54   -31.815815   -15.676361     21.28264   -101.05372    435.07979    23.505894    22.160642   0.49770312     435.5775   -2672.6799 
   14800      -102251   -92485.498    237.14253    20724    226619.89   -25.990452   -31.082019    256.17167   -303.06101    435.13694    23.503539    22.158422   0.46912806    435.60607   -2708.8539 
   14900   -102215.53   -92500.775    235.91027    20724     226548.7    73.856593    211.08445   -129.72399    140.20932    435.10417    23.500731    22.155775   0.48551689    435.58968   -2701.9784 
   15000   -102245.37   -92484.389    237.03265    20724    226770.69   -16.790233   -73.355354   -129.27046    152.25511    435.11379    23.511982    22.166382   0.48070302     435.5945    -2707.785 
   15100   -102148.08   -92466.441     235.1059    20724    226534.77   -5.1189405    89.848243    106.91588   -212.12094    434.94872    23.504208    22.159053    0.5632391    435.51196   -2733.7051 
   15200   -102265.57   -92441.276    238.57014    20724    226808.69   -48.579463    215.01717   -93.601799   -267.15376    435.30453      23.5088    22.163382   0.38533286    435.68987   -2750.6869 
   15300   -102262.38   -92456.942    238.11233    20724    226617.39   -52.647328   -194.95469   -77.353949    114.36665    435.12538    23.503721    22.158594   0.47491151    435.60029   -2743.2696 
   15400   -102123.74   -92462.754    234.60452    20724       226473    30.819273    88.458785   -28.002886    32.001921    435.24783    23.492927    22.148417    0.4136869    435.66151   -2743.8397 
   15500   -102174.26   -92429.736    236.63302    20724    226561.56   -73.674681   -60.395641   -108.18237   -52.446036    435.13649    23.500525    22.155581   0.46935368    435.60585   -2771.1626 
   15600   -102188.73   -92460.343    236.24128    20724    226557.84    9.8150915   -23.518825    16.407057    36.557042    434.97577    23.504674    22.159492   0.54971689    435.52548   -2746.3855 
   15700   -102153.33   -92434.642    236.00557    20724    226683.91    29.826157   -67.081536    126.31301    30.246999    435.06518    23.508797    22.163379   0.50500782    435.57019   -2770.3436 
   15800   -102161.98   -92448.623    235.87623    20724    226575.68   -17.677105    66.796188   -28.174514   -91.652987    434.89117    23.507886     22.16252   0.59201314    435.48319   -2759.1674 
   15900   -102253.67   -92439.696    238.31947    20724    226493.48   -40.533542   -134.20123   -90.003404    102.60401    434.98292    23.501142    22.156162   0.54613879    435.52906   -2770.5072 
   16000    -102227.9   -92444.291    237.58211    20724    226371.84   -19.602094   -121.30167   -143.80629    206.30168    434.71472    23.502077    22.157044   0.68023844    435.39496   -2771.3928 
   16100   -102274.04   -92378.248    240.30642    20724    226435.24   -92.375162    17.778265   -250.74751   -44.156237     434.6044    23.508351    22.162958   0.73540029     435.3398   -2833.3349 
   16200   -102171.97   -92354.827    238.39653    20724    226489.56   -98.777923   -1.0130859    -65.38405   -229.93663    434.62746    23.510547    22.165029   0.72387047    435.35133   -2854.3458 
   16300   -102158.51   -92370.316    237.69363    20724    226514.05    22.554414   -68.920116     99.81084    36.772518    434.69562    23.509975    22.164489   0.68979224    435.38541   -2844.0839 
   16400   -102062.83   -92381.795     235.0913    20724    226416.49    89.836026    223.44703    142.17339   -96.112342    434.58193    23.507985    22.162614   0.74663651    435.32856   -2840.4101 
   16500   -102144.85   -92329.049    238.36393    20724    226536.71   -28.507082    -168.3546   -271.69495    354.52829     434.5457    23.515205    22.169421   0.76474824    435.31045   -2883.7346 
   16600   -102112.85   -92327.113    237.63382    20724    226184.37   -64.013324   -51.041994   -144.17315    3.1751701    434.26532    23.504495    22.159324   0.90493899    435.17026    -2898.588 
   16700   -102115.08   -92330.301    237.61068    20724    226378.68    55.033121     53.11644    69.545257    42.437665    434.31051    23.513366    22.167687   0.88234275    435.19286   -2895.4088 
   16800   -102027.03   -92292.019    236.40207    20724     226275.4    112.98869    178.83709   -164.79127    324.92026    434.53453    23.501941    22.156916   0.77033313    435.30487   -2938.7528 
   16900   -102078.44   -92306.119    237.30814    20724    226337.88    5.7195134   -192.81798    188.06127    21.915249    434.36424    23.509793    22.164318   0.85547917    435.21972   -2922.2852 
   17000   -102087.17   -92237.096    239.19618    20724    226236.69    -16.21782    53.777586     4.189361   -106.62041    434.29258    23.506476    22.161191   0.89130778    435.18389    -2992.471 
   17100   -101926.57   -92259.335    234.75617    20724    226310.74     65.00639   -32.232245    329.68986   -102.43845    434.37348    23.508133    22.162753    0.8508604    435.22434   -2972.0997 
   17200   -102129.54   -92261.052    239.64341    20724     226544.4     9.124275   0.37011632   -177.79594    204.79865    434.75336    23.509988    22.164502   0.66091846    435.41428   -2963.9963 
   17300    -102101.9   -92222.786     239.9015    20724    226288.08   -61.640034    -101.8437   -31.840273   -51.236132    434.68315    23.498582    22.153749    0.6960263    435.37917   -3007.1976 
   17400   -102066.13   -92247.584    238.43068    20724    226426.65     15.24838   -84.751341    245.61543   -115.11895    434.70845    23.505091    22.159886   0.68337343    435.39183   -2982.9327 
   17500   -102054.29   -92188.941    239.56722    20724    226395.94    93.940855     195.1363    37.507285    49.178981    434.76304    23.502022    22.156991   0.65607985    435.41912   -3047.9473 
   17600   -102004.13   -92185.162    238.44078    20724    226418.89   -44.370632     167.4984    44.827204    -345.4375    434.99008    23.497078    22.152331   0.54255836    435.53264   -3044.0692 
   17700   -101996.48   -92167.397     238.6865    20724    226388.98    27.680279   0.94384408    69.628991    12.468001    434.89981    23.497965    22.153167   0.58769667     435.4875    -3067.997 
   17800   -101949.13   -92147.869    238.01095    20724    226394.12   -33.436027    14.343825   -230.34881     115.6969    434.73956    23.502562    22.157501   0.66781898    435.40738   -3084.6412 
   17900   -101972.85   -92133.476    238.93633    20724    226394.64    61.433253    229.84796    30.226697   -75.774897    434.72661    23.502939    22.157856   0.67429689     435.4009   -3105.6498 
   18000   -102001.36   -92119.643    239.96451    20724    226587.37    14.287961    122.32843     142.6507   -222.11524    434.97028    23.506354    22.161076   0.55245963    435.52274   -3112.5299 
   18100   -101910.22   -92095.067    238.34831    20724    226398.71    38.953486    251.26159   -35.403634   -98.997496    434.79618     23.50127    22.156283   0.63950912    435.43569   -3144.7116 
   18200   -101945.06   -92098.444    239.11217    20724    226458.34    21.108585   -67.634157   -154.86707    285.82698    434.80891     23.50402    22.158876   0.63314714    435.44205   -3140.9305 
   18300   -101962.77    -92052.16    240.66624    20724    226489.37    19.453793    23.423178   -191.75883    226.69703    434.75919    23.506975    22.161661   0.65800362     435.4172   -3187.1026 
   18400   -102016.36   -92032.999    242.43281    20724     226397.4   -95.087348   -247.83356    -153.7133    116.28482    434.67315    23.504527    22.159354   0.70102341    435.37418   -3203.3036 
   18500   -101841.35   -91991.671     239.1867    20724     226473.8    11.695524    142.44851    251.60214   -358.96408    435.05978    23.498045    22.153243   0.50771108    435.56749    -3248.505 
   18600   -101834.68   -92023.006    238.26371    20724    226555.15   -6.3001261    43.635938   -8.1067202   -54.429596    435.13682    23.500184    22.155259   0.46918781    435.60601   -3214.1956 
   18700   -101864.06   -91985.481    239.88846    20724    226579.23    69.989332    20.568576   -54.056044    243.45546    434.85496    23.509048    22.163616   0.61011788    435.46508   -3257.2605 
   18800   -101808.04   -91999.694    238.18291    20724    226331.56    23.819752    90.929634   -104.70917     85.23879    434.82657    23.496963    22.152223   0.62431604    435.45088    -3247.843 
   18900   -101966.41   -91998.954    242.04659    20724    226405.91   -91.774903   -151.43154   -188.62991    64.736745    434.81331     23.50118    22.156198   0.63094579    435.44425   -3244.0802 
   19000    -101930.6   -91977.029    241.70945    20724    226337.61     39.31482    98.667319   -26.800821    46.077961    434.65754    23.501846    22.156826   0.70882941    435.36637   -3277.5522 
   19100   -101978.66   -92000.125    242.31563    20724    226434.57   -56.433462   -100.99346   -75.638828    7.3318982    434.79265    23.503226    22.158127   0.64127699    435.43392   -3245.1208 
   19200   -101863.68   -91978.554    240.04736    20724     226336.7    48.451734   -61.026289    -65.10858    271.49007    434.97629    23.493186    22.148662   0.54945598    435.52574   -3272.9952 
   19300   -101852.08   -91942.518    240.64084    20724    226390.76    37.115923      147.463    4.5966939   -40.711927    434.89856    23.498091    22.153286   0.58831867    435.48688   -3311.2121 
   19400   -101894.07   -91969.137    241.01405    20724    226418.81    -32.89509   -44.027608   -261.24887     206.5912    434.80658    23.502032    22.157001   0.63431213    435.44089   -3281.4045 
   19500   -101864.11   -91943.916    240.89907    20724    226343.45   -11.679592   -34.671543   -68.441446    68.074212    434.69314    23.501186    22.156204   0.69102871    435.38417   -3310.0436 
   19600   -101848.56   -91973.644    239.79944    20724    226290.05    85.478539    70.829491    7.8763763    177.72975    434.54011    23.502551    22.157491   0.76754345    435.30766   -3286.6313 
   19700    -101869.2   -92007.728    239.47299    20724    226502.27    16.274896   -111.44872    251.68959   -91.416186    434.73605     23.50827    22.162882   0.66957559    435.40562   -3245.1724 
   19800   -101876.85   -91991.237    240.05913    20724    226247.83   -102.34458   -101.75805   -15.745528   -189.53015    434.42836    23.503381    22.158273   0.82341936    435.25178   -3264.8293 
   19900   -101925.46   -91961.484    241.96222    20724     226403.3   -44.907638   -12.045372    31.482492   -154.16003    434.45296    23.510789    22.165257   0.81112165    435.26408   -3296.2034 
   20000   -101816.17   -91934.335    239.96758    20724    226288.75     123.1124     112.2629    252.81662    4.2576728    434.36353    23.507261    22.161931   0.85583528    435.21936   -3333.7453 
   20100   -101846.39   -91947.051    240.39256    20724    226417.82    60.211224    202.59476    197.49786   -219.45894    434.52001    23.509729    22.164258   0.77759631     435.2976   -3316.2982 
   20200   -101877.53   -91968.435    240.62956    20724    226513.21    17.928519   -66.009003   -14.689103    134.48366    434.73615    23.508835    22.163415   0.66952428    435.40568   -3292.1696 
   20300   -101815.93   -91944.807    239.70731    20724    226388.84   -18.385581    125.86423     -52.8452   -128.17577    434.47147    23.509538    22.164077   0.80186519    435.27333   -3317.1634 
   20400   -101827.14   -91914.189    240.72313    20724    226417.57   -24.907568    96.428366    114.34172   -285.49279     434.6627    23.505857    22.160608   0.70625106    435.36895   -3347.2179 
   20500   -101819.12   -91912.252    240.57533    20724    226354.98    51.341693    180.30222    -189.4437    163.16656    434.53629    23.506026    22.160767   0.76945275    435.30575   -3355.3315 
   20600   -101834.59   -91919.494    240.77518    20724    226371.32    1.3113997   -50.217673   -115.68193     169.8338    434.62234    23.504548    22.159373   0.72642759    435.34877   -3347.6795 
   20700   -101765.16   -91889.438    239.81906    20724    226377.32   -40.631736    -57.51188    6.3018542   -70.685183     434.7507    23.501388    22.156395    0.6622485    435.41295   -3374.4022 
   20800   -101757.47   -91868.491    240.14101    20724    226485.47   -44.633166   -92.734562   -82.632532    41.467595    434.85632    23.504147    22.158996   0.60944142    435.46576   -3392.3814 
   20900   -101719.93   -91902.595    238.40111    20724    226344.99    57.924685    292.65102    11.553234    -130.4302    434.86717    23.496564    22.151846   0.60401362    435.47119   -3370.6416 
   21000   -101798.44   -91923.516    239.79971    20724    226313.97   -59.934924   -61.233559   -158.14059    39.569376    434.79578    23.496882    22.152146   0.63971224    435.43549   -3346.6189 
   21100   -101831.02   -91905.591      241.026    20724    226495.58    74.620981   -16.873436    228.94847    11.787905    434.75732    23.507347    22.162013   0.65894058    435.41626   -3366.1445 
   21200   -101691.68   -91885.779    238.12357    20724    226297.88    76.053445    109.09928    226.63212   -107.57106     434.9668    23.491427    22.147003   0.55420071      435.521   -3393.2353 
   21300   -101861.52   -91859.322    242.89042    20724    226424.72    18.326338    164.62052    38.893872   -148.53538    435.03093    23.496278    22.151576   0.52213744    435.55306   -3416.0841 
   21400   -101740.54   -91814.951    241.02999    20724    226459.24    15.441096   -110.20333    115.88982    40.636799     434.7362    23.506033    22.160773   0.66950205     435.4057   -3459.1854 
   21500   -101805.99   -91822.832      242.428    20724    226383.66    40.510492   -151.26334    20.672567    252.12225    434.55922    23.506895    22.161586   0.75798896    435.31721   -3456.7342 
   21600   -101830.19   -91790.491    243.80094    20724    226309.09   -101.01148   -290.15996   -205.61136    192.73687    434.76896    23.497353     22.15259   0.65311933    435.42208   -3487.1581 
   21700   -101660.05   -91748.634    240.68593    20724    226302.45     7.955966   -105.32684    224.65404   -95.459303    434.63889    23.500524     22.15558   0.71815362    435.35705   -3532.6992 
   21800   -101738.99   -91785.127    241.71658    20724    226179.78     7.197458    62.849594    141.29413   -182.55135    434.51396    23.497531    22.152758   0.78061835    435.29458   -3502.1331 
   21900   -101824.28   -91804.036    243.32846    20724    225981.46   -40.346082   -126.17562     28.27313    -23.13576    434.15092    23.497045      22.1523   0.96213756    435.11306   -3487.5515 
   22000   -101696.58   -91802.203    240.27198    20724    225961.81    44.487716   -10.426767    41.594831    102.29508    434.14016    23.496315    22.151612   0.96752029    435.10768   -3494.4822 
   22100   -101641.03   -91746.483    240.27627    20724    225994.45   -4.1971602   -64.998096     99.97188   -47.565264    434.05105    23.500424    22.155485    1.0120744    435.06313   -3547.5837 
   22200   -101696.05   -91762.497    241.22345    20724    226169.41   -23.981211   -70.934434    222.27733   -223.28652    434.17214     23.50624    22.160969    0.9515318    435.12367    -3524.602 
   22300   -101697.66   -91735.239    241.92445    20724    225909.85   -52.927443   -6.4025273   -73.748914   -78.630886    434.09309    23.494887    22.150265   0.99105749    435.08414   -3560.5878 
   22400   -101777.42   -91730.893    243.96692    20724    226189.92   -68.190509   -168.88923   -127.50775    91.825451    433.98544    23.512362     22.16674    1.0448795    435.03032   -3557.7635 
   22500   -101709.05   -91739.832    242.08949    20724    226156.78    15.000122   -9.5984866    105.50722   -50.908365     433.9154    23.512537    22.166905    1.0799013     434.9953   -3553.8638 
   22600    -101692.2   -91749.215     241.4524    20724    226113.93    16.379914    51.689983    143.28108   -145.83132    433.73531     23.51519    22.169406    1.1699445    434.90526   -3548.4948 
   22700   -101698.71    -91706.64     242.6445    20724    226153.31   -34.444936    26.017481   -112.57878   -16.773514    434.18223    23.505131    22.159923   0.94648689    435.12871   -3589.0464 
   22800   -101614.21   -91678.544    241.27477    20724    226255.03    41.123044   -32.130555   -101.17459    256.67428    434.19945     23.50995    22.164466   0.93787423    435.13733    -3618.954 
   22900   -101575.51   -91629.864    241.51708    20724    226358.57    131.58524   -16.613246   -112.14595    523.51492    434.18659    23.515677    22.169865    0.9443065    435.13089   -3667.5059 
   23000   -101615.85   -91687.969    241.08556    20724    226138.66    -43.88619   -93.944886    4.3125576   -42.026241    433.99911    23.509328    22.163879    1.0380466    435.03715   -3610.6397 
   23100   -101635.89   -91663.688      242.162    20724    226257.08    28.815475   -41.435454    12.669005    115.21288    434.29276     23.50753    22.162185   0.89121944    435.18398   -3633.5154 
   23200    -101697.5   -91646.241    244.08165    20724    225970.89   -51.446109    -91.51969    125.12939   -187.94803    434.00239    23.500516    22.155572    1.0364033     435.0388   -3659.4888 
   23300   -101758.99   -91631.938     245.9222    20724    226420.83   -3.1229793    3.9209261    146.21631   -159.50618    434.02703    23.523233    22.176989    1.0240858    435.05111   -3665.8161 
   23400   -101535.59   -91567.492    242.06227    20724    226280.15    48.903792    92.471878     105.0947     -50.8552    434.04544    23.515426    22.169628    1.0148813    435.06032   -3733.5989 
   23500   -101510.29   -91561.902    241.58373    20724    226327.95    86.079975    401.54235   -27.372122   -115.93031    434.15331    23.514987    22.169215   0.96094517    435.11425    -3741.054 
   23600   -101569.71   -91536.059    243.65421    20724    226428.34   -9.9495124    12.599914     68.60929   -111.05774    434.29581    23.516343    22.170493     0.889694    435.18551   -3762.8795 
   23700    -101539.2    -91565.05    242.20935    20724    226337.85   -43.047673   -27.378438   -92.790714   -8.9738659    434.02599    23.518951    22.172952    1.0246067    435.05059   -3733.7354 
   23800   -101658.75   -91594.237    244.40348    20724    226415.43    46.132684   -108.54947    218.46097    28.486549    434.57295    23.508173    22.162791    0.7511271    435.32407   -3710.2472 
   23900   -101590.05   -91621.972    242.06186    20724    226321.25    16.063309   -43.154256    49.198106    42.146078    434.10099    23.516057    22.170223   0.98710514    435.08809   -3687.0708 
   24000   -101597.56   -91556.669    243.83007    20724    226586.02   -16.425429   -11.873456    60.546039    -97.94887    434.44928    23.520375    22.174294   0.81296196    435.26224   -3740.7256 
   24100    -101596.8   -91545.915    244.07267    20724    226349.52   -44.771869   -98.325419    68.149174   -104.13936    434.28199    23.512623    22.166987   0.89660368     435.1786   -3760.3938 
   24200      -101527   -91551.241    242.24843    20724    226431.64    86.443809    43.290033    121.30847    94.732926    434.54332    23.509816     22.16434   0.76594024    435.30926   -3757.9045 
   24300   -101568.44    -91501.68    244.45811    20724    226523.09   -75.337802   -131.66348   -203.06479    108.71487    434.35414    23.519683    22.173643   0.86053019    435.21467   -3799.6165 
   24400   -101627.08   -91488.939    246.19148    20724     226372.4   -74.390505   -90.663281   -266.17176    133.66353    434.36235    23.511637    22.166057   0.85642466    435.21878   -3817.2775 
   24500   -101619.59   -91506.082    245.59326    20724    226412.61   -80.237813   -94.319253   -228.70896    82.314771     434.4141    23.512324    22.166704   0.83054946    435.24465   -3799.3432 
   24600   -101482.01   -91482.446    242.82644    20724    226238.16   -43.765939    146.13797    27.306013    -304.7418    434.44442    23.502445     22.15739   0.81538908    435.25981   -3829.3448 
   24700   -101529.66   -91507.538    243.37416    20724    226285.14     69.44621    2.9610391    388.34815   -182.97056    434.39563    23.506204    22.160935   0.83978446    435.23542   -3811.9641 
   24800    -101470.9   -91487.913    242.42379    20724    226080.58    2.7804706    75.045706   -22.816278   -43.888016    434.12177    23.502987    22.157902   0.97671523    435.09848   -3833.9766 
   24900   -101439.03   -91483.957    241.74609    20724    226095.61   -5.9204461   -85.518253   -44.651165    112.40808    434.04833    23.505757    22.160513    1.0134364    435.06176   -3838.0117 
   25000   -101417.78   -91460.059    241.81018    20724     226254.6    72.165925   -32.234532    93.671937    155.06037     434.4621     23.50282    22.157744   0.80655151    435.26865   -3861.7823 
   25100   -101420.26   -91413.295    243.00601    20724    226337.15    33.166841   -146.74519    183.01729    63.228415    434.42857    23.508014    22.162641   0.82331286    435.25189   -3907.0067 
   25200   -101481.13   -91448.743    243.62337    20724       226162   -26.250099   -34.460238    164.82053   -209.11059    434.03125     23.50967    22.164202    1.0219755    435.05322   -3873.7065 
   25300   -101505.62   -91451.333    244.15536    20724    226327.47    37.685693    253.09116    192.84577   -332.87985    434.32208    23.510393    22.164884   0.87656043    435.19864   -3873.9742 
   25400   -101530.67   -91443.226    244.96044    20724    225944.18   -48.725457   -20.986185   -133.52638     8.336193    433.98565    23.499581     22.15469     1.044775    435.03043   -3888.2714 
   25500    -101338.7    -91391.76    241.54858    20724    226220.89    71.364045   -25.805454    174.16966    65.727925    434.31466    23.505058    22.159854   0.88027152    435.19493   -3938.4319 
   25600   -101464.79   -91408.605    244.20135    20724    226062.49   -10.422434   -108.32039   -118.85001     195.9031    434.23581     23.49896    22.154106   0.91969512     435.1555   -3924.2373 
   25700   -101481.29   -91442.125    243.78802    20724    226026.45    16.355518   -73.448151   -196.71727    319.23198    433.97963    23.504021    22.158877    1.0477831    435.02742   -3895.6575 
   25800   -101500.83   -91417.338    244.86451    20724    226063.87    79.266957    292.02175    -36.32918     -17.8917    434.07952    23.503262    22.158161   0.99783968    435.07736   -3923.0208 
   25900   -101487.93   -91401.982     244.9242    20724    226099.29   -44.739471   -149.86212    150.31029   -134.66657    434.13758    23.503532    22.158415   0.96881249    435.10639   -3932.6678 
   26000   -101483.31   -91396.946    244.93412    20724    225851.11   -63.613868   -83.195556    -162.8036    55.157556    434.20427    23.488825     22.14455   0.93546343    435.13974   -3945.0578 
   26100   -101380.33   -91347.014    243.64598    20724     226042.5    21.942644    34.299335   -151.83047    183.35907    434.13052     23.50077    22.155812   0.97233757    435.10286    -3993.725 
   26200   -101388.61   -91304.077    244.88987    20724    225763.24    21.254605    196.88408    3.7259049   -136.84617    433.79632    23.495295     22.15065    1.1394407    434.93576   -4046.2953 
   26300   -101431.18   -91290.205    246.26039    20724    226028.36    57.785954   -13.371295   -30.129783    216.85894    433.76508    23.509933     22.16445    1.1550603    434.92014   -4054.2342 
   26400   -101444.34   -91276.677     246.9084    20724    225746.76   -30.124688   -63.168156    38.885146   -66.091054    433.53809    23.501433    22.156437    1.2685527    434.80665   -4074.3791 
   26500   -101380.36    -91278.71    245.30552    20724    225902.99    24.667669   -33.304129   -29.869818    137.17695    433.81935    23.501942    22.156916    1.1279237    434.94728   -4069.6764 
   26600   -101441.33   -91278.203    246.79819    20724    226035.85   -46.690417    156.44671   -61.044036   -235.47393    433.88457    23.507085    22.161765    1.0953131    434.97989   -4064.3198 
   26700   -101444.77   -91219.707    248.30233    20724    226165.83   -135.15669    -25.61355    -302.1034   -77.753124    433.86329     23.51442     22.16868    1.1059549    434.96925   -4114.8867 
   26800   -101315.92   -91231.716    244.88166    20724    226075.95   -32.532836   -41.483867   -39.306659   -16.807984    434.02974    23.505238    22.160024    1.0227319    435.05247   -4112.6342 
   26900   -101221.27   -91211.004    243.08628    20724    226082.84    61.468897   -17.328912    244.13423   -42.398627    434.01074    23.506111    22.160847    1.0322288    435.04297   -4137.7323 
   27000   -101336.53   -91231.454    245.38864    20724    225918.94   -23.578198   -109.55488    1.4860965    37.334192     433.7221    23.505406    22.160182    1.1765516    434.89865   -4117.5541 
   27100    -101404.5   -91235.238    246.94718    20724    225941.43    29.001202     107.4326    177.29425   -197.72324    433.91251    23.501418    22.156422    1.0813438    434.99386   -4118.1674 
   27200   -101353.44   -91240.708    245.57444    20724    225895.51   -70.026602   -43.527192   -293.92379    127.37118    433.91587    23.498939    22.154085    1.0796634    434.99554   -4109.9087 
   27300    -101325.5   -91218.961    245.42415    20724    225941.89    54.499012    84.926669     32.03344    46.536926    433.91647    23.501334    22.156344     1.079365    434.99584   -4137.4289 
   27400   -101307.62   -91249.366    244.25152    20724    225793.62   -20.311121    151.30122    -131.6658   -80.568787    433.38802    23.507941    22.162572    1.3435886    434.73161   -4108.5825 
   27500   -101324.71   -91245.383    244.76322    20724    225707.34    65.280766     24.30706   -7.2667086    178.80195    433.23472    23.507607    22.162258    1.4202395    434.65496   -4122.1835 
   27600    -101320.4   -91210.211    245.51282    20724    225840.41     -41.1813    58.775838   -191.53357    9.2138357    433.52536    23.506653    22.161358    1.2749209    434.80028   -4149.4384 
   27700   -101309.33   -91207.846    245.30143    20724    225785.57   -24.507781    26.011735    56.587501   -156.12258    433.37738    23.507811    22.162449    1.3489078    434.72629   -4155.4214 
   27800   -101305.14   -91207.144    245.21672    20724    225896.67    69.787385    141.24654   -74.756721    142.87234    433.52411    23.509614     22.16415    1.2755468    434.79965   -4157.2272 
   27900   -101373.64   -91230.132    246.32181    20724       226047    52.285481    186.17962   -48.951368    19.628192    433.59295    23.515568    22.169763    1.2411231    434.83408   -4132.0176 
   28000   -101198.95   -91188.356    243.09421    20724    225915.92     32.99556    70.951922     28.69017  -0.65541019    433.64258    23.507404    22.162066    1.2163079    434.85889   -4174.4967 
   28100   -101453.16   -91213.264    248.66249    20724    225878.63    66.441252    69.257419    -134.5061    264.57244    433.62244     23.50601    22.160751    1.2263779    434.84882    -4158.109 
   28200   -101273.86   -91213.461    244.30368    20724    225837.37   -1.5565154   -78.371593   -188.15438    261.85642    433.83309    23.498156    22.153347    1.1210541    434.95415   -4154.0471 
   28300   -101385.38   -91210.936    247.07306    20724    226036.42   -33.583011   -43.568977     136.5213   -193.70136     433.7598    23.510495     22.16498     1.157702     434.9175   -4149.7886 
   28400   -101361.55   -91197.701     246.8159    20724    225782.71   -16.812462    5.3189022    112.63293   -168.38921    433.26157    23.510803    22.165271    1.4068139    434.66839   -4173.0673 
   28500   -101273.42   -91168.178    245.39259    20724     225874.1   -5.0416663    125.04095    126.66233   -266.82827    433.47199    23.509853    22.164375    1.3016067    434.77359   -4199.7603 
   28600   -101247.72   -91140.438    245.44215    20724    226030.42   -3.0155907   -3.6346602   -81.107393    75.695281    433.69999    23.511804    22.166214    1.1876057    434.88759   -4224.8309 
   28700    -101260.9   -91139.217    245.79195    20724    225809.36    26.228192    13.766831   -42.499476    107.41722    433.53249    23.504843    22.159652    1.2713535    434.80385   -4234.1397 
   28800   -101144.86   -91102.989    243.85373    20724    226021.93    57.274821    185.31706    188.48275   -201.97534    433.79988    23.508655    22.163246    1.1376616    434.93754   -4266.1215 
   28900   -101278.57   -91114.976    246.80959    20724    225896.49   -14.722766    78.213182   -172.83299    50.451515    433.74068    23.503735    22.158607    1.1672611    434.90794   -4256.3889 
   29000   -101339.09   -91151.492    247.39266    20724    225866.62   -78.414716    -71.60529    -74.99026     -88.6486    433.97027    23.495963     22.15128    1.0524661    435.02273   -4220.5755 
   29100   -101286.59    -91169.88    245.67113    20724    225747.39    -3.072866    98.630363   -87.020067   -20.828894    433.85652     23.49284    22.148335    1.1093415    434.96586   -4210.3498 
   29200   -101254.62   -91151.406    245.34333    20724     226044.3   0.92053933   -242.16704   -227.96403    472.89268    433.79368    23.509987    22.164501    1.1407596    434.93444   -4220.4532 
   29300   -101309.44   -91171.863    246.17791    20724    225932.06      76.2968    67.003547    94.012528    67.874325    433.78223    23.504459     22.15929    1.1464875    434.92871      -4210.5 
   29400   -101215.31   -91160.362    244.17142    20724    226002.78    36.776643    86.470888   -3.4576003    27.316641    433.87474    23.505632    22.160395    1.1002308    434.97497     -4217.19 
   29500   -101234.97   -91141.045    245.11772    20724    225921.57    25.434635    8.5461548    58.202521    9.5552301    433.48753    23.511902    22.166306    1.2938354    434.78136   -4240.1047 
   29600   -101358.06   -91102.131    249.05192    20724     226135.2    76.219316    336.90149   -133.68129    25.437751    433.92579    23.511134    22.165582    1.0747033     435.0005   -4278.2466 
   29700   -101182.65    -91048.94    246.08396    20724    225961.87   -33.488914    -52.89976   -247.38749    199.82051    433.74635    23.506982    22.161668    1.1644232    434.91078   -4329.0649 
   29800   -101246.89    -91090.66    246.63086    20724    226136.48    20.238847    8.7972992   -258.38025     310.2995    433.82445    23.513946    22.168233    1.1253748    434.94983   -4287.3465 
   29900   -101207.38   -91060.507    246.40354    20724    226045.57   -30.723439   -209.21825    192.38903     -75.3411    433.81549    23.509462    22.164006    1.1298539    434.94535   -4317.8647 
   30000   -101234.02   -91050.797    247.28622    20724    226103.29   -41.923902    9.4730695   -198.15387    62.909095    433.86936    23.511003    22.165459    1.1029212    434.97228   -4326.4088 
   30100      -101139   -91027.152    245.55317    20724    226056.32    100.37404    269.41835    80.935959   -49.232191    433.78868    23.510747    22.165218    1.1432614    434.93194   -4358.8811 
   30200   -101207.99   -91002.491    247.82732    20724    226031.15   -3.2333025   -3.1203164    121.99737   -128.57696    433.76797    23.509999    22.164513    1.1536127    434.92159   -4382.1392 
   30300   -101210.64   -91041.214    246.95133    20724     225973.2    89.019367    48.435653   -366.58385     585.2063     433.5571    23.512702     22.16706    1.2590478    434.81615    -4348.408 
   30400   -101108.32   -91027.448    244.80092    20724    226037.15    43.451343   -31.154226   -3.5904524    165.09871    433.61254    23.514525    22.168779    1.2313277    434.84387    -4358.623 
   30500   -101200.75   -91020.624    247.21107    20724    225971.09   -42.480168   -234.72536    382.07025   -274.78539    433.97743    23.501202    22.156219    1.0488838    435.02632    -4366.661 
   30600   -101321.53   -91010.506    250.38974    20724    225956.37    -60.38973   -21.231648    15.820376   -175.75792    433.52029    23.512824    22.167176    1.2774526    434.79775   -4380.4147 
   30700   -101144.76     -90957.7    247.37958    20724    226048.87    22.503364   -65.767529    21.305054    111.97257     433.6202    23.514927    22.169158    1.2275012     434.8477   -4433.9892 
   30800   -101129.33   -90951.368     247.1585    20724    225927.32    29.244501    25.138281    161.31549    -98.72027    433.50186    23.511812    22.166222    1.2866707    434.78853   -4442.7213 
   30900   -101128.93   -90990.422    246.20055    20724    225896.24   -7.2749913   -99.454856    237.07936   -159.44948    433.45484     23.51147    22.165899    1.3101796    434.76502    -4403.453 
   31000   -101137.96   -90931.302    247.85544    20724    226091.83    -6.072887    54.035519   -206.44425    134.19007    433.54391     23.51923    22.173215    1.2656429    434.80956     -4456.93 
   31100    -101181.7   -90961.316     248.1887    20724    225892.71   -41.424416   -5.8980527   -154.34751     35.97231    433.87744    23.499834    22.154929    1.0988782    434.97632    -4434.627 
   31200   -101089.03   -90960.771    245.95146    20724    225814.45   -20.546867   -123.73128    195.17284   -133.08217    433.59997    23.503279    22.158177    1.2376156    434.83758   -4440.0851 
   31300   -101243.76   -90991.725    248.95736    20724    225888.19   -14.466529   -49.860439   -58.129153    64.590004    433.71685    23.503949    22.158808    1.1791727    434.89603   -4408.5661 
   31400   -101239.71   -90995.768    248.76083    20724    225849.72    25.350286    -3.216397    22.112366     57.15489    433.51633    23.507382    22.162045    1.2794356    434.79576    -4408.816 
   31500   -101206.91   -90926.867    249.63735    20724    225960.42   -16.332003    87.833372    -250.2126    113.38322    433.68019      23.5087    22.163287    1.1975053    434.87769   -4472.0402 
   31600      -101191   -90979.085    247.98305    20724    225919.12    32.838712   -48.570159   -14.793248    161.87954    433.28783    23.517192    22.171294    1.3936873    434.68151   -4424.3132 
   31700   -101145.88   -90946.653      247.675    20724    225797.44   -81.858379   -130.40829   -72.212698   -42.954152    433.28078    23.511049    22.165503    1.3972108    434.67799   -4455.6498 
   31800   -101152.12   -90941.493    247.95168    20724    225993.05    58.196373    219.43064    62.499647   -107.34116    433.37858    23.518577    22.172599    1.3483095    434.72689   -4461.8633 
   31900   -101105.08   -90917.014    247.40398    20724    225952.98   -120.86356    50.318438   -78.366348   -334.54277    433.45693    23.514366     22.16863    1.3091357    434.76606   -4480.8123 
   32000   -101133.81   -90922.077    247.97852    20724    225760.22    11.249158    -69.14989    260.41921   -157.52184    433.46055    23.504236    22.159079    1.3073261    434.76787   -4489.5847 
   32100   -101183.28   -90894.391    249.85229    20724    226222.72   -11.797248    80.486851    104.68806   -220.56666      433.801    23.519065    22.173059    1.1370989     434.9381   -4503.6412 
   32200   -101106.81   -90863.502    248.74547    20724    225988.84   -35.613188    23.200182     46.21056   -176.25031    433.78986    23.507206    22.161879    1.1426683    434.93253   -4539.2391 
   32300   -101001.81   -90866.188    246.13042    20724    226084.33    -17.60623      59.0882   -156.29655    44.389657    433.89296    23.509378    22.163927    1.0911177    434.98408   -4537.1245 
   32400    -101028.5   -90855.781    247.03121    20724    226151.93    -61.96072   -131.35028   -67.628782    13.096902    433.51312    23.523192     22.17695    1.2810386    434.79416   -4543.3622 
   32500   -101025.12   -90824.201    247.71609    20724    225851.72    12.312013      108.733   -184.21314    112.41618    433.59176    23.505441    22.160215    1.2417187    434.83348   -4588.9301 
   32600   -101011.19   -90807.415    247.78532    20724    225988.61    44.872303    58.507615    38.860105    37.249189    433.56758    23.513219    22.167548    1.2538117    434.82139    -4605.565 
   32700   -100976.16   -90809.797    246.87679    20724    225796.02    82.080124    74.481665    147.38807     24.37064    433.39176    23.507965    22.162594    1.3417201    434.73348   -4607.8505 
   32800   -101076.48    -90776.22     250.1284    20724    225914.52   -5.6477405   -54.572445    2.4648363    35.164387    433.20602    23.519173    22.173161    1.4345885    434.64061    -4635.118 
   32900   -101038.74   -90814.826    248.27449    20724    225844.16    24.153987   -16.648969   -302.75538    391.86631    433.17464    23.516362    22.170511    1.4502784    434.62492    -4603.006 
   33000   -101069.23   -90757.586    250.40485    20724    225745.62    8.1957862    173.30342     44.56469   -193.28075      433.292    23.508047    22.162672     1.391599     434.6836   -4662.0068 
   33100   -100971.29    -90782.09     247.4314    20724    225665.15   -25.645663  -0.66670959   -81.439323    5.1690423    433.41603    23.500493    22.155551    1.3295861    434.74561   -4639.8182 
   33200   -100964.59   -90742.688    248.22566    20724    225577.14    24.238489    -83.41075   -19.438512    175.56473     433.0375    23.506177     22.16091    1.5188519    434.55635   -4683.8701 
   33300   -100998.18   -90762.976    248.54849    20724    225693.88    40.329855    152.19937    2.0692517   -33.279058    432.74986    23.520071    22.174008    1.6626704    434.41253     -4662.01 
   33400   -100942.89   -90791.252    246.51932    20724    225560.37   -16.438783    173.60668   -206.83973   -16.083302    432.93405    23.508111    22.162733    1.5705773    434.50462    -4637.166 
   33500   -101017.31   -90761.331    249.05305    20724    225716.85    28.194374    115.21261    242.88695   -273.51644    433.05349    23.513021    22.167361    1.5108539    434.56435   -4665.3577 
   33600   -100912.64    -90760.57    246.52992    20724    225505.12    -68.72995    6.4302654   -126.58625   -86.033872    432.95798    23.504583    22.159406     1.558608    434.51659   -4668.3925 
   33700    -101020.1   -90775.993    248.76473    20724    225493.62   -9.6251952   -177.07382   -162.09589    310.29412      432.582    23.514196    22.168469       1.7466     434.3286   -4662.2958 
   33800   -101030.44   -90741.435    249.85506    20724    225543.46     16.21059   -198.64445     95.74404    151.53218    432.57942    23.516864    22.170985    1.7478919    434.32731     -4698.14 
   33900   -100918.16   -90731.236     247.3761    20724    225729.37    26.994007   -2.2766124    111.74545   -28.486816    432.77673     23.52119    22.175063    1.6492352    434.42596   -4705.0093 
   34000   -100965.09   -90731.424    248.51118    20724    225701.83    136.71342    110.59886    201.01105    98.530334    432.73487    23.520893    22.174783     1.670164    434.40504   -4712.9485 
   34100   -100805.03   -90691.291    245.59905    20724     225706.4    80.029502    233.07341    117.95943   -110.94433    432.82724    23.518621    22.172641    1.6239808    434.45122   -4748.9093 
   34200   -100988.95   -90737.397    248.94564    20724    225756.31   -40.148666    28.539384    45.883368   -194.86875    432.99762    23.516593    22.170729    1.5387912    434.53641   -4697.4223 
   34300   -100853.91   -90718.561    246.12363    20724    225685.15   -11.158466    38.927244    160.57903   -232.98167    433.12104    23.509537    22.164076    1.4770819    434.59812   -4720.1332 
   34400   -100964.16   -90721.926    248.71926    20724    225563.35    120.74174    126.51163      20.6566    215.05698    432.85021    23.510543    22.165025    1.6124925    434.46271   -4729.7442 
   34500   -100945.31   -90695.008    248.91521    20724    225498.14     45.77924   -43.386958   -52.271421     232.9961    432.69969    23.511233    22.165675    1.6877538    434.38745    -4755.026 
   34600   -100868.07    -90662.75     247.8229    20724    225741.65    11.101983    149.76524   -277.17219    160.71289    432.74798    23.522612    22.176403    1.6636103    434.41159   -4779.5197 
   34700   -100903.01   -90668.635    248.52844    20724    225732.43    54.676251   -84.805403     324.6521   -75.817942    432.85894    23.519116    22.173108    1.6081318    434.46707   -4777.0909 
   34800   -100931.84   -90659.421    249.45237    20724    225790.07   -7.8581682   -51.886404   -139.68639    167.99829    433.11047    23.515288    22.169498    1.4823672    434.59283   -4783.1073 
   34900   -100853.49   -90696.427    246.65112    20724    225740.65    111.58066   -29.584107    148.99094    215.33514    432.87038    23.519234    22.173219    1.6024117    434.47279   -4754.4452 
   35000   -100898.16   -90675.668    248.23997    20724    225990.95    43.501033    1.6389183    94.660984    34.203198    433.04088    23.527636     22.18114    1.5171587    434.55804    -4765.138 
   35100   -100852.47   -90607.587    248.78371    20724    225858.53   -52.047513    32.966906   -95.147351   -93.962093    433.21462    23.516025    22.170194    1.4302887    434.64491    -4833.612 
   35200   -100953.06   -90641.912    250.39284    20724    225875.77   -42.041775   -51.236153   -44.447703    -30.44147    433.19074    23.517571    22.171651    1.4422316    434.63297   -4801.9224 
   35300   -100933.09   -90673.715    249.13546    20724    225951.46    11.852894   -29.134206   -124.15118    188.84407     433.2293    23.520464    22.174378    1.4229482    434.65225   -4769.8691 
   35400   -100840.19   -90662.579    247.14997    20724    225574.78   -24.714088   -82.968681   -146.56572    155.39213    433.05355    23.505619    22.160383    1.5108257    434.56437   -4791.7548 
   35500   -100914.32   -90643.052    249.42431    20724    225818.96   -50.032424   -54.654182    78.505928   -173.94902    433.13142    23.516223     22.17038    1.4718892    434.60331   -4807.4085 
   35600   -100853.51    -90630.48    248.25303    20724    225727.59     33.44017    200.12993   -25.476605   -74.332815    433.18041    23.510136    22.164641     1.447395    434.62781   -4824.9622 
   35700   -100932.85    -90623.62    250.34613    20724    225795.41   -31.504897    30.622404   -138.70532    13.568226    433.28201     23.51091    22.165371    1.3965943    434.67861    -4827.991 
   35800    -100784.1   -90647.594    246.15186    20724    225657.41    35.857583    147.03538   -204.53557    165.07294    433.18029    23.506484    22.161199     1.447456    434.62774   -4813.8046 
   35900   -100814.93   -90622.551    247.50855    20724     225436.1   -29.639538    104.05995   -109.53089    -83.44767    432.89869    23.502595    22.157532    1.5882529    434.48695   -4842.8818 
   36000    -100910.8   -90594.478    250.51833    20724    225780.61   -31.497686    109.58309   -97.690221   -106.38593    433.29818    23.509701    22.164231    1.3885125    434.68669   -4863.3892 
[...]
  491300   -93338.737   -80500.466    311.76067    20724    221482.31   -9.2709853    53.395946   -97.815687    16.606785    422.29807    23.586157    22.236312    6.8885635    429.18664   -22576.426 
  491400   -93353.495   -80463.232    313.02324    20724    221025.71   -49.959453    82.852575     209.0402   -441.77114    422.16926    23.565427    22.216768    6.9529693    429.12223   -22633.443 
  491500   -93332.554   -80519.238    311.15469    20724    221247.05    101.36357    377.49715   -254.83432    181.42789    422.26984    23.574415    22.225242    6.9026818    429.17252   -22578.179 
  491600   -93326.633   -80510.249    311.22917    20724    221278.62    10.660532    208.86197   -175.16933   -1.7110427    422.35622    23.573686    22.224555    6.8594905    429.21571   -22581.728 
  491700   -93228.247   -80487.536    309.39156    20724     221444.9   -12.860542   -143.73846    225.18743    -120.0306    421.93436    23.594328    22.244015    7.0704183    429.00478    -22598.59 
  491800   -93274.628   -80454.521    311.31959    20724    221269.47    8.2499532    273.12206    268.41895   -516.79114     421.8325    23.587828    22.237887     7.121349    428.95385   -22641.803 
  491900   -93389.334   -80471.289     313.6979    20724    221354.99   -104.77673   -167.75667   -136.70001   -9.8735085    422.11942    23.584366    22.234624    6.9778919    429.09731   -22619.196 
  492000   -93375.575   -80458.434    313.67594    20724    221188.06   -21.013106    18.885715   -101.41777    19.492738    422.15546    23.574465    22.225289    6.9598693    429.11533   -22644.877 
  492100    -93348.34   -80453.069    313.14486    20724    221005.49   -55.098643    -229.1474    309.27752   -245.42604    421.88208    23.572368    22.223312    7.0965606    428.97864   -22655.761 
  492200    -93382.61   -80529.363    312.12436    20724    220984.68    29.168568    130.25942   -94.941882    52.188168    422.16697    23.563303    22.214766    6.9541174    429.12108   -22589.142 
  492300   -93309.281   -80483.126    311.46648    20724    220723.66    55.788282    93.800936   -90.693047    164.25696     421.9821    23.554541    22.206505    7.0465502    429.02865   -22644.623 
  492400   -93336.482   -80499.527    311.72874    20724    220874.41   -81.904846   -292.97367    67.203268    -19.94414    422.13408    23.558341    22.210088    6.9705601    429.10464   -22617.763 
  492500   -93372.511   -80499.251    312.61035    20724    220758.86    18.042851    96.056613    241.40903   -283.33709    421.91897    23.558182    22.209937    7.0781156    428.99708   -22630.048 
  492600   -93266.928   -80491.212    310.24161    20724    220680.83    45.084338   -101.51909    307.42422   -70.652123    421.75483    23.558601    22.210333    7.1601872    428.91501   -22643.722 
  492700   -93431.734   -80523.954    313.44861    20724    220826.65   -33.916488   -44.838464    -152.9984    96.087404    421.78858     23.56544     22.21678    7.1433103    428.93189   -22604.802 
  492800   -93274.727    -80530.77    309.47039    20724    220508.79    40.396094    181.66915    41.251205   -101.73208    421.46555    23.557496    22.209291    7.3048264    428.77037   -22615.676 
  492900   -93350.318   -80477.394    312.60218    20724    220556.68   -22.638003    52.226337    1.7095526    -121.8499    420.78021    23.579233    22.229784    7.6474966     428.4277   -22666.152 
  493000   -93371.756   -80498.003    312.62231    20724    220525.12    121.25105    114.11176   -291.37737    541.01877     420.5967    23.582689    22.233042    7.7392494    428.33595    -22655.64 
  493100   -93271.523   -80462.022    311.06205    20724     220690.6    116.87942    181.04751     279.6459   -110.05517    420.81006    23.585554    22.235743    7.6325724    428.44263    -22686.52 
  493200   -93399.763   -80448.647    314.50098    20724    220833.13   -73.841843   -142.81833   -134.50433    55.797132     421.0508    23.586423    22.236563    7.5121997      428.563   -22690.963 
  493300   -93388.308   -80447.416     314.2527    20724    220572.07   -133.89988   -177.94016   -78.405644   -145.35384          421    23.573899    22.224756       7.5376     428.5376   -22700.679 
  493400    -93245.38   -80448.896    310.74595    20724    220880.65    79.989542     89.08155    420.55367    -269.6666    421.36774    23.580087    22.230589    7.3537281    428.72147   -22700.218 
  493500   -93262.189   -80399.361    312.35703    20724     221185.9   -92.290084   -85.089018   -61.454074   -130.32716    421.63412     23.58892    22.238917    7.2205409    428.85466   -22727.433 
  493600   -93236.919    -80451.24    310.48355    20724    221459.55    186.84673    136.43191    341.26902    82.839274    421.79908    23.598892    22.248317    7.1380581    428.93714   -22683.445 
  493700   -93289.829    -80453.77    311.70698    20724    221130.41    -15.59478   -66.372309   -47.884333    67.472303    421.59964    23.586925    22.237036    7.2377808    428.83742    -22685.56 
  493800   -93375.357   -80407.928    314.89713    20724    221072.73    -35.50145   -195.35621   -60.950368    149.80223    421.20626    23.594859    22.244516    7.4344704    428.64073   -22734.838 
  493900   -93236.363   -80426.171     311.0788    20724    221143.97   -13.653173    66.555628    112.06553   -219.58068    421.35715    23.594435    22.244116    7.3590239    428.71618   -22714.929 
  494000   -93173.207   -80440.906    309.18734    20724    220780.81    74.362529   -83.191305    315.66159    -9.382701    421.04612     23.58376    22.234052    7.5145402    428.56066   -22721.288 
  494100   -93361.934   -80443.866    313.69847    20724    220869.91   -66.448769    -21.02844   -88.747655   -89.570212    421.34183    23.580239    22.230733    7.3666863    428.70851   -22710.886 
  494200   -93348.734   -80455.162     313.1036    20724    220757.98   -53.300177   -152.64044    189.83403   -197.09413    421.25018    23.576827    22.227516    7.4125087    428.66269   -22706.092 
  494300   -93299.434    -80433.57    312.43075    20724    220412.28     23.11315    157.56507   -379.50643    291.28081    420.89196    23.568384    22.219556    7.5916219    428.48358    -22744.08 
  494400   -93419.267   -80417.465    315.73182    20724    220524.46   -98.553569   -120.03415   -198.83014    23.203589    420.95144    23.572715    22.223639    7.5618821    428.51332   -22753.499 
  494500   -93155.703   -80399.512    309.76748    20724    220486.25    115.62872    235.48683    37.680377    73.718939    421.31866    23.560398    22.212027    7.3782675    428.69693   -22783.549 
  494600   -93313.923   -80407.229    313.42225    20724    220994.43   -29.695765    16.612283   -59.491865   -46.207712    421.78844    23.574394    22.225222    7.1433811    428.93182   -22754.491 
  494700   -93310.096   -80421.173    312.99071    20724    221063.61    -69.20068   -32.428664   -139.50928   -35.664091    422.01059    23.571877    22.222849    7.0323051    429.04289   -22735.296 
  494800   -93115.375   -80410.472    308.52204    20724    221100.68    83.855781    74.719815    352.00863    -175.1611    422.11195    23.571023    22.222044    6.9816239    429.09358   -22753.833 
  494900   -93301.641   -80424.226    312.71124    20724    220852.31    11.597078   -43.876134   -53.530202    132.19757    422.08673    23.558484    22.210222    6.9942327    429.08097   -22751.208 
  495000   -93360.909   -80395.667    314.84403    20724    221115.04   -83.742414   -32.340317    -26.72069   -192.16624    422.24156     23.56817    22.219354     6.916821    429.15838   -22768.516 
  495100   -93308.687   -80379.039    313.97964    20724    221270.53   -123.14121    -145.0826    87.866011   -312.20704    422.21042    23.577325    22.227985    6.9323877    429.14281     -22779.6 
  495200   -93248.335   -80378.411    312.52932    20724    221031.03    66.600002    221.77332    113.17528    -135.1486    422.08533    23.568053    22.219244    6.9949347    429.08027   -22797.122 
  495300   -93305.225   -80399.809    313.39123    20724    221182.43   -30.141183   -5.1413553   -275.93201    190.64982    422.34766    23.568801    22.219949    6.8637709    429.21143   -22768.535 
  495400   -93332.518   -80426.232    313.41234    20724    221094.38   -40.251334    49.229713   -287.72685    117.74314    422.13722    23.569981    22.221062    6.9689895    429.10621   -22747.375 
  495500   -93315.858   -80408.985    313.42661    20724     221008.8    17.976106    146.88205    43.409673    -136.3634     422.2763    23.561538    22.213102    6.8994491    429.17575   -22770.694 
  495600   -93275.439   -80407.581    312.47917    20724    221425.55    20.850096   -49.092237    61.343072    50.299453    422.76004    23.570246    22.221312    6.6575808    429.41762   -22757.842 
  495700   -93191.688   -80407.482    310.44779    20724    221520.49    78.181705   -3.8576211   -92.250638    330.65338    423.23224    23.562143    22.213673    6.4214807    429.65372   -22760.296 
  495800   -93190.727    -80422.89     310.0503    20724     221343.8    15.493976    -32.82579     491.0485   -411.74079    423.23821    23.552578    22.204655    6.4184927    429.65671   -22751.523 
  495900   -93287.245   -80373.374    313.59654    20724    221193.91    34.166119    214.64527   -172.35589    60.208978    423.10197    23.548393    22.200709    6.4866138    429.58859   -22811.016 
  496000   -93298.924   -80386.068    313.57187    20724    221290.57    134.79555    82.461389    224.88913    97.036123    422.95767    23.557555    22.209347     6.558767    429.51643   -22801.152 
  496100   -93245.432   -80386.148    312.27096    20724    221107.07   -79.250555    70.214701   -215.79337   -92.172991     422.5909    23.558002    22.209768     6.742149    429.33305   -22800.114 
  496200   -93281.631    -80405.68     312.6757    20724    221454.08    147.08322     25.26035    56.746019    359.24328    422.78716    23.571008     22.22203    6.6440177    429.43118   -22778.782 
  496300   -93240.215   -80395.236    311.92359    20724    221810.52    -11.06272   -58.702095    30.740591    -5.226656    423.43523    23.571911    22.222881    6.3199872    429.75521   -22770.243 
  496400   -93407.865   -80452.639    314.60079    20724    221600.16   -139.73132    241.73703    -271.0618   -389.86917    423.62135    23.555555    22.207461    6.2269272    429.84827   -22718.939 
  496500   -93275.287   -80461.269    311.17171    20724    221389.89   -35.323874    172.37687   -171.44379    -106.9047    423.45391    23.549031     22.20131    6.3106455    429.76455    -22723.47 
  496600   -93272.923   -80492.209    310.36298    20724    221001.41    9.5477139   -231.59296   -16.092588    276.32869    422.64604    23.550836    22.203013    6.7145799    429.36062   -22711.671 
  496700   -93217.349     -80448.2    310.08216    20724    221540.81    151.45208   -62.922268     181.2898     335.9887    422.86168    23.573546    22.224423    6.6067602    429.46844   -22742.554 
  496800    -93265.38   -80409.209    312.19537    20724    221676.34   -68.434367   -116.26087    99.818724   -188.86095    423.14433    23.572878    22.223793     6.465433    429.60977   -22769.385 
  496900   -93280.315   -80391.199    312.99538    20724    221815.12   -89.554806    71.165537    72.341158   -412.17111    423.17353    23.579443    22.229982     6.450834    429.62437   -22782.667 
  497000   -93192.862   -80375.256    311.25887    20724     221809.2   -40.732333   -165.45676   -135.98251    179.24227    423.49018    23.570311    22.221373     6.292508    429.78269   -22802.742 
  497100   -93322.352   -80430.658    313.05799    20724    221815.91    59.569834    122.86695   -11.340776    67.183328    423.29862    23.576001    22.226737    6.3882914    429.68691    -22754.59 
  497200   -93367.589   -80456.065    313.53953    20724    221627.27    3.6624268    156.45662    4.0742849   -149.54362    423.27743    23.566564     22.21784    6.3988848    429.67632   -22735.784 
  497300   -93241.241   -80439.457    310.87463    20724    221488.08     42.08277    224.86373    240.29717   -338.91259    423.29073    23.558792    22.210513    6.3922362    429.68296   -22761.449 
  497400    -93235.34   -80388.748    311.96275    20724    222023.28    145.32685    81.043583   -110.65891    465.59588    423.73408    23.574895    22.225695    6.1705593    429.90464   -22795.885 
  497500   -93220.155   -80415.516    310.94396    20724     221836.1    92.501683     15.06128    404.24091   -141.79714    423.83911    23.562036    22.213571    6.1180464    429.95715   -22775.434 
  497600   -93308.201   -80437.116    312.55754    20724    221596.35   -115.29591   -318.23966   -27.256793  -0.39126504    423.70737    23.552961    22.205015    6.1839131    429.89129   -22756.364 
  497700   -93270.976   -80455.393    311.20973    20724    221389.41    44.059913   -10.395732    74.052058    68.523413    423.46263    23.548763    22.201058    6.3062871    429.76891   -22754.495 
  497800   -93348.743   -80395.466    314.55347    20724     222006.2   -38.459477   -55.349091   -34.921432   -25.107908    423.99596    23.566707    22.217975      6.03962    430.03558   -22789.636 
  497900    -93326.44   -80416.516    313.50069    20724    221841.75   -39.004718   -57.450706    118.71314   -178.27658    423.77277     23.56418    22.215593     6.151213    429.92399    -22777.66 
  498000   -93303.032   -80392.021     313.5271    20724    221556.29    116.35105    257.45954    74.399859    17.193751    423.86764    23.546379     22.19881    6.1037823    429.97142   -22822.344 
  498100   -93197.289   -80402.012    310.71662    20724    221611.76   -96.468502   -26.652053   -66.811581   -195.94187    424.06143    23.543945    22.196515    6.0068847    430.06832   -22800.663 
  498200   -93303.684    -80413.82    313.01356    20724    221764.95    63.566652   -46.934797   -131.04613    368.68088    424.03903    23.552703    22.204772    6.0180834    430.05712   -22793.797 
  498300   -93274.201    -80431.58    311.86631    20724    221527.44   -32.725876   -349.56954   -157.36359    408.75551    423.41625    23.557393    22.209194    6.3294732    429.74573   -22781.262 
  498400   -93281.028   -80399.989    312.79925    20724       221477    10.087617   -124.93865    91.701171    63.500334    423.37201    23.555941    22.207825    6.3515953     429.7236    -22817.12 
  498500   -93210.204   -80384.246     311.4617    20724    221877.12    41.781005     27.67861    91.557771    6.1066343    423.64579     23.56959    22.220693     6.214706    429.86049   -22823.055 
  498600   -93349.077   -80400.185    314.44698    20724    221976.36   -142.71839   -156.47164    -380.7099    109.02637    423.78321    23.571038    22.222058    6.1459969     429.9292    -22796.43 
  498700   -93249.806   -80387.147    312.35291    20724    221801.68   -130.12357   -41.678138   -237.16577   -111.52682    423.53319    23.568715    22.219868     6.271006    429.80419   -22814.722 
  498800   -93202.811   -80378.011    311.43357    20724    221525.96   -39.413625    8.4089821   -115.45356   -11.196294     423.4498    23.556381     22.20824     6.312699     429.7625   -22840.315 
  498900   -93324.918   -80344.724     315.2071    20724     221849.1   -74.067535   -39.794517   -291.56709    109.15901    423.77034    23.564638    22.216024    6.1524323    429.92277   -22863.923 
  499000   -93231.377   -80397.186     311.6616    20724    221444.65   -134.42938   -173.95278    50.565826    -279.9012    423.21983    23.558455    22.210195    6.4276843    429.64752   -22824.112 
  499100   -93164.028   -80425.284     309.3438    20724    221372.38    153.68463     217.6162    451.84058    -208.4029    422.73721    23.568053    22.219244    6.6689968     429.4062   -22813.836 
  499200   -93300.052   -80366.944    314.06367    20724    221535.37    15.383721    120.50398   -91.382806    17.029985     422.7728    23.575734    22.226486    6.6511993      429.424   -22863.836 
  499300   -93151.681   -80376.671    310.22445    20724    221667.63      103.295    106.06661   -242.71236    446.53074    423.13243    23.572747    22.223669    6.4713832    429.60382   -22853.952 
  499400   -93158.086   -80337.933    311.32072    20724    221866.26    96.567556    199.07461   -119.89289    210.52094    423.26071    23.579732    22.230255    6.4072453    429.66795   -22886.466 
  499500   -93183.114   -80310.457    312.59569    20724    221909.48   -22.084113     37.94384   -34.048842   -70.147337    423.28899    23.581241    22.231677    6.3931043     429.6821   -22910.031 
  499600   -93249.174   -80354.427    313.13215    20724    221691.38      15.3999    -51.69837   -172.53606    270.43413    423.03293    23.576782    22.227473     6.521135    429.55406   -22877.863 
  499700   -93322.522   -80354.963    314.90029    20724    221665.38   -258.10292    -181.3216   -267.38046   -325.60672    422.75209    23.583229    22.233551    6.6615563    429.41364   -22867.503 
  499800   -93109.212   -80300.412    311.04502    20724    221788.95    6.8750842    291.25865    143.95659   -414.58999    422.98901    23.583194    22.233518    6.5430926    429.53211   -22932.591 
  499900   -93213.384    -80298.12    313.63035    20724    221680.96    79.382025    173.78946    97.576378   -33.219764    422.88637    23.580313    22.230803    6.5944147    429.48079     -22944.2 
  500000   -93187.648   -80353.153    311.66901    20724    221710.79    73.122059   -28.314134    61.085946    186.59436    422.93826    23.580453    22.230934    6.5684681    429.50673    -22887.85 
Loop time of 55369.9 on 32 procs for 500000 steps with 20724 atoms

Performance: 1.560 ns/day, 15.381 hours/ns, 9.030 timesteps/s
94.4% CPU use with 32 MPI tasks x no OpenMP threads

MPI task timing breakdown:
Section |  min time  |  avg time  |  max time  |%varavg| %total
---------------------------------------------------------------
Pair    | 6740.9     | 8551.9     | 14107      |2638.0 | 15.45
Bond    | 0.45756    | 0.56005    | 0.68727    |   8.5 |  0.00
Kspace  | 8169       | 13746      | 15564      |2091.1 | 24.83
Neigh   | 8704.3     | 12206      | 17824      |2827.1 | 22.04
Comm    | 341.27     | 4085.5     | 8908.2     |4964.0 |  7.38
Output  | 5.3956     | 61.041     | 78.906     | 317.9 |  0.11
Modify  | 14465      | 16680      | 23602      |2388.4 | 30.13
Other   |            | 39.2       |            |       |  0.07

Nlocal:    647.625 ave 706 max 599 min
Histogram: 3 1 2 11 3 1 4 5 1 1
Nghost:    7394.06 ave 7736 max 6990 min
Histogram: 3 1 5 4 5 0 2 0 5 7
Neighs:    237466 ave 272149 max 213198 min
Histogram: 4 4 9 2 0 1 5 4 1 2
FullNghs:  474931 ave 547884 max 424705 min
Histogram: 3 5 10 1 0 1 5 5 1 1

Total # of neighbors = 15197781
Ave neighs/atom = 733.342
Ave special neighs/atom = 2
Neighbor list builds = 500000
Dangerous builds not checked
write_data production.R1
PPPM initialization ...
  extracting TIP4P info from pair style
WARNING: Using 12-bit tables for long-range coulomb (../kspace.cpp:316)
  G vector (1/distance) = 0.34586
  grid = 400 48 48
  stencil order = 5
  estimated absolute RMS force accuracy = 0.000402667
  estimated relative force accuracy = 1.21262e-06
  using double precision FFTs
  3d grid and FFT values/proc = 64980 38400
write_restart restartproduction.R1
PPPM initialization ...
  extracting TIP4P info from pair style
WARNING: Using 12-bit tables for long-range coulomb (../kspace.cpp:316)
  G vector (1/distance) = 0.34586
  grid = 400 48 48
  stencil order = 5
  estimated absolute RMS force accuracy = 0.000402667
  estimated relative force accuracy = 1.21262e-06
  using double precision FFTs
  3d grid and FFT values/proc = 64980 38400
Total wall time: 15:22:50
