LAMMPS (30 Jul 2016)
# Sets up LAMMPS simulation for transient melting of ice: TIP4P/Ice
# Ensure cold thermostats do not move
# Thinbox: 16x1x1
# Defects
# Order param l=2

#### setting MD parameters ####
units real
boundary p p p
atom_style full

# read ice box in restart file
### read the equilibrated NPT restart file

read_restart restart.state
  orthogonal box = (0.403427 0.0217694 0.0205236) to (435.672 23.5094 22.164)
  32 by 1 by 1 MPI processor grid
  20736 atoms
  13824 bonds
  6912 angles
  2 = max # of 1-2 neighbors
  1 = max # of 1-3 neighbors
  1 = max # of 1-4 neighbors
  2 = max # of special neighbors


#### force field definition ####
pair_style      lj/cut/tip4p/long 2 1 1 1 0.1577 10.0
pair_modify	tail yes

kspace_style	pppm/tip4p 1.0e-6

bond_style	harmonic
angle_style	harmonic
dihedral_style	none
improper_style	none

bond_coeff	1 450.0 0.9572
angle_coeff	1 55.0 104.52


# reset pair coeff
pair_coeff	* * 0.0 0.0

#OO
pair_coeff	2 2 0.21085 3.1668
#OH
pair_coeff	* 1 0.0000 0.0000

neighbor        2.0 bin
neigh_modify    every 1 delay 1 check no

timestep	2.0
fix		constraints all shake 0.000001 20 0 b 1 a 1
  0 = # of size 2 clusters
  0 = # of size 3 clusters
  0 = # of size 4 clusters
  6912 = # of frozen angles

group water type 1 2
20736 atoms in group water

#*********** SIMULATION PARAMETER TO ADJUST ****************
#Box dimensions
variable lx equal lx
variable ly equal ly
variable lz equal lz

### Temperature of the hot and cold regions ####
variable thi equal 375
variable tlo equal 215
variable runpressure equal 0.986923


# Configuration equilibrated in density and temperature

# Define dx here

variable lx equal lx
variable ly equal ly
variable lz equal lz

variable xlo equal xlo
variable xhi equal xhi

variable boxcentre equal ${xlo}+(${xhi}-${xlo})/2
variable boxcentre equal 0.403426601942705+(${xhi}-${xlo})/2
variable boxcentre equal 0.403426601942705+(435.671773398058-${xlo})/2
variable boxcentre equal 0.403426601942705+(435.671773398058-0.403426601942705)/2

variable dx equal 2.0

#### ADD IN DEFECTS AT THE CENTRE OF THE HOT THERMOSTAT #####
variable y1 equal ${ly}/2.0
variable y1 equal 23.487661123881/2.0
variable z1 equal ${lz}/2.0
variable z1 equal 22.1434528711982/2.0

region kill1 sphere ${boxcentre} ${y1} ${z1} 3
region kill1 sphere 218.0376 ${y1} ${z1} 3
region kill1 sphere 218.0376 11.7438305619405 ${z1} 3
region kill1 sphere 218.0376 11.7438305619405 11.0717264355991 3
delete_atoms region kill1 compress no bond yes mol yes
Deleted 12 atoms, new total = 20724
Deleted 8 bonds, new total = 13816
Deleted 4 angles, new total = 6908
############


variable thip equal ${thi}*2.0/3.0
variable thip equal 375*2.0/3.0
variable tlop equal ${tlo}*2.0/3.0
variable tlop equal 215*2.0/3.0
variable hbl equal ${boxcentre}-${dx}
variable hbl equal 218.0376-${dx}
variable hbl equal 218.0376-2
variable hbh equal ${boxcentre}+${dx}
variable hbh equal 218.0376+${dx}
variable hbh equal 218.0376+2

#***************************************************
## EQUILIBRATION PERIOD - to reach the steady state ###
#run 0

#reset the timestep to start your production run
reset_timestep 0

# define a group to perform averages
#group s1 type 1
###*** SYSTEM THERMOSTATTING: HOT and COLD regions ***###

fix NVE all nve
fix PRESS all press/berendsen aniso ${runpressure} ${runpressure} 500000 couple yz
fix PRESS all press/berendsen aniso 0.986923 ${runpressure} 500000 couple yz
fix PRESS all press/berendsen aniso 0.986923 0.986923 500000 couple yz


### Apply THERMOSTATS ###

#set up the "hot region" in the middle of the box
region hot block ${hbl} ${hbh} 0 ${ly} 0 ${lz} units box
region hot block 216.0376 ${hbh} 0 ${ly} 0 ${lz} units box
region hot block 216.0376 220.0376 0 ${ly} 0 ${lz} units box
region hot block 216.0376 220.0376 0 23.487661123881 0 ${lz} units box
region hot block 216.0376 220.0376 0 23.487661123881 0 22.1434528711982 units box


#set up the "cold region" at the left end of the box
#region cold block ${cbl} ${cbh} 0 ${ly} 0 ${lz} units box

#set up the "cold region" at the right end of the box
#region cold2 block ${h2bl} ${xhi} 0 ${ly} 0 ${lz} units box


#Cold regions  unification
#region cold union 2 cold1 cold2 units box

#Create group of cold molecules
####group cool_ice region cold
####group cool_ice include molecule

####compute cold_temp cool_ice temp
####fix cold_rescale water temp/rescale 1 ${tlo} ${tlo} 0.0001 1.0
####fix_modify cold_rescale temp cold_temp

#this calculates the temperature using only the atoms in the "hot region"
#compute hot_temp all temp/region hot

# calculate the temperature using only WATER in the "hot region"
compute hot_temp water temp/region hot

#this calculates the temperature using only WATER in the "cold region"
#compute cold_temp water temp/region cold


#set up a basic velocity rescale for the hot region WATER with thip
fix hot_rescale water temp/rescale 1 ${thip} ${thip} 1.0 1.0
fix hot_rescale water temp/rescale 1 250 ${thip} 1.0 1.0
fix hot_rescale water temp/rescale 1 250 250 1.0 1.0
#change the thermostat to only act on the "hot region"
#this is done by passing it the "hot temp" compute that we defined above
fix_modify hot_rescale temp hot_temp

#set up a basic velocity rescale for the cold region
#fix cold_rescale water temp/rescale 1 ${tlop} ${tlop} 1.0 1.0
#change the thermostat to only act on the "cold region"
#this is done by passing it the "cold temp" compute that we defined above
#fix_modify cold_rescale temp cold_temp

### Ensure MOMENTUM CONSERVATION ###

#ensure that linear momentum is conserved despite the "thermostatting" by velocity rescaling
fix cons_mom all momentum 1 linear 1 1 1


thermo 100
thermo_style custom step pe etotal temp atoms vol press pxx pyy pzz lx ly lz xlo xhi  f_hot_rescale

group ox type 2
6908 atoms in group ox
group hy type 1
13816 atoms in group hy
compute KE all ke/atom
variable TEMP atom c_KE*4186.8/(1.3806488*6.02214129)

compute cc1 all chunk/atom bin/1d x center 2 units box
#fix TPROFILE all ave/chunk 1 500 500 cc1 v_TEMP density/number file temp.dat
fix TPROFILEox ox ave/chunk 1 500 500 cc1 v_TEMP density/number file temp-ox.dat
fix TPROFILEhy hy ave/chunk 1 500 500 cc1 v_TEMP density/number file temp-hy.dat

compute orderparam ox orientorder/atom degrees 1 2 nnn 4 cutoff 3.5
compute cc2 ox chunk/atom bin/1d x center 2 units box
#fix ORDERPARAM all ave/chunk 1 500 500 cc2 c_orderparam[1] file order-param.dat
fix ORDERPARAM all ave/chunk 1 500 500 cc2 c_orderparam[1] file order-param.dat

restart 50000 config.restart

run 500000
PPPM initialization ...
  extracting TIP4P info from pair style
WARNING: Using 12-bit tables for long-range coulomb (../kspace.cpp:316)
  G vector (1/distance) = 0.345592
  grid = 405 48 48
  stencil order = 5
  estimated absolute RMS force accuracy = 0.00040612
  estimated relative force accuracy = 1.22302e-06
  using double precision FFTs
  3d grid and FFT values/proc = 67260 38880
Neighbor list info ...
  2 neighbor list requests
  update every 1 steps, delay 1 steps, check no
  max neighbors/atom: 2000, page size: 100000
  master list distance cutoff = 12.3154
  ghost atom cutoff = 12.3154
  binsize = 6.1577 -> bins = 71 4 4
Memory usage per processor = 12.7894 Mbytes
Step PotEng TotEng Temp Atoms Volume Press Pxx Pyy Pzz Lx Ly Lz Xlo Xhi hot_resc 
       0   -103665.54   -94728.364     217.0277    20724    226382.16    81.331714    281.80627    19.899734   -57.710863    435.26835    23.487661    22.143453    0.4034266    435.67177            0 
     100   -103641.11   -94504.285    221.87595    20724     226635.4   -58.494274   -12.868532   -127.59055   -35.023735    435.21465    23.502244    22.157201   0.43027334    435.64493   -211.06407 
     200   -103505.08   -94376.643    221.67226    20724    226529.45   -28.081052   -55.797141    28.909971   -57.355985    435.46158    23.490087     22.14574   0.30680908    435.76839    -342.9617 
     300   -103443.49   -94332.245     221.2548    20724    226616.81   -48.606451   -292.28143   -34.089102    180.55118    435.32321     23.49835     22.15353   0.37599506     435.6992   -383.65786 
     400   -103472.17   -94313.053    222.41733    20724    226637.46    20.775999    66.277332    42.592684    -46.54202    435.28307    23.500504    22.155561   0.39606661    435.67913    -407.1515 
     500   -103311.05   -94239.696     220.2859    20724     226581.3     59.33213    191.80386   -82.775306    68.967833    435.46051    23.492805    22.148302   0.30734686    435.76785   -486.51777 
     600   -103273.67     -94239.4    219.38547    20724    226655.65    49.666994    5.2462223   -20.673248    164.42801     435.2652    23.501929    22.156904   0.40500182     435.6702   -483.41218 
     700   -103401.82   -94176.302    224.02958    20724    226534.59   0.94426983    66.605582   -152.10787    88.335101    435.48507     23.48972    22.145394   0.29506522    435.78013   -548.83057 
     800   -103395.42   -94190.119    223.53882    20724    226560.42    51.232581   -60.188903    -146.7088    360.59544    435.44748    23.492074    22.147613   0.31386228    435.76134   -537.58117 
     900   -103296.86   -94150.534    222.10672    20724    226548.67   -9.2764119   -33.040224    94.722148    -89.51116    435.28802    23.495767    22.151094   0.39358771    435.68161   -574.82674 
    1000   -103318.65   -94145.544      222.757    20724    226716.58   -15.324802    16.011335    87.848976   -149.83472    435.60829     23.49583    22.151154   0.23345738    435.84174    -577.6846 
    1100   -103340.52   -94106.789    224.22917    20724     226659.2   -6.2833005   -138.17473    155.69842   -36.373588    435.43116    23.497634    22.152855   0.32201818    435.75318   -618.31321 
    1200   -103331.37   -94080.363    224.64863    20724    226642.32    56.974953    48.245583    22.025666    100.65361    435.44217    23.496462     22.15175   0.31651695    435.75868   -649.80177 
    1300   -103250.54   -94059.447    223.19369    20724    226584.05    16.713732   -3.0530902   -15.877716    69.072002    435.26818    23.498136    22.153329   0.40350821    435.67169   -670.81207 
    1400   -103226.43   -94043.835    222.98728    20724    226620.85    37.782099    123.20158    14.768317   -24.623599    435.40786    23.496275    22.151573   0.33366784    435.74153    -686.5414 
    1500   -103303.41   -93997.194     225.9894    20724    226820.23   -48.803049   -87.950233   -113.65153    55.192614    435.53938    23.503059     22.15797   0.26791091    435.80729   -726.18256 
    1600   -103228.69   -94027.544    223.43786    20724    226619.39    18.682653    -50.64818    41.875635    64.820504    435.62412    23.490366    22.146003    0.2255381    435.84966   -705.68542 
    1700   -103202.08   -93985.888    223.80333    20724    226533.75    13.906438   -109.00149    67.296344    83.424462    435.35635    23.493149    22.148626   0.35942471    435.71578   -748.44881 
    1800   -103205.42   -93931.025     225.2166    20724    226555.55    17.620687   -21.671757   -62.267042    136.80086    435.24865    23.497186    22.152432   0.41327475    435.66193   -804.36267 
    1900   -103115.24   -93889.194    224.04238    20724    226721.73    112.51068   -31.328482    156.53416    212.32636    435.48461    23.499433    22.154551   0.29529633     435.7799   -846.90254 
    2000   -103156.94   -93883.466    225.19433    20724    226425.29   -44.135196   -130.08971    -215.6837    213.36783    435.30013    23.489041    22.144753   0.38753291    435.68767   -852.73112 
    2100    -103161.9   -93845.604    226.23416    20724    226625.43    20.989172    99.489115    29.001941   -65.523541    435.47515    23.494697    22.150086   0.30002363    435.77518    -890.4121 
    2200   -103148.12   -93793.969    227.15337    20724    226591.14     45.76364    139.24258    117.28639   -119.23805    435.28075    23.498165    22.153356   0.39722726    435.67797   -945.21946 
    2300   -103099.22   -93787.951    226.11213    20724    226613.29    19.648936   -68.616982    160.32334   -32.759547    435.40408    23.495985      22.1513   0.33556018    435.73964   -949.48942 
    2400   -103107.31   -93752.698    227.16462    20724    226565.05    7.8879306   -60.052974     198.0364   -114.31963    435.39066    23.493846    22.149284   0.34227132    435.73293   -986.81031 
    2500   -103129.69   -93772.339    227.23113    20724     226620.4   -43.235749   -25.744262   -42.971508   -60.991476     435.4392    23.495406    22.150754   0.31799806     435.7572   -963.03416 
    2600   -103117.94   -93734.734    227.85893    20724    226697.75   0.08537641   -49.584694    67.998659   -18.157837    435.63832    23.494044    22.149471   0.21843934    435.85676   -1002.1818 
    2700   -103086.39   -93717.909    227.50132    20724     226502.3   -57.297016   -72.525446   -145.51095    46.145351    435.31979    23.492505    22.148019   0.37770317     435.6975   -1023.2529 
    2800   -103179.34   -93745.683    229.08416    20724    226552.43   -60.542082   -131.06534    83.967907   -134.52882    435.20659     23.49816     22.15335   0.43430735    435.64089   -993.89935 
    2900   -103011.29   -93644.195    227.46781    20724    226423.98    5.2647615   -73.696393    186.60494   -97.114261    435.30366    23.488878      22.1446   0.38577124    435.68943   -1103.9205 
    3000   -103078.46   -93639.704    229.20793    20724    226551.94    35.956573    74.351137    113.08808   -79.569501    435.16067    23.499374    22.154495   0.45726746    435.61793   -1108.2063 
    3100   -103031.16   -93599.672    229.03133    20724    226446.73     27.84255    86.934361   -109.04702    105.64031    435.27126    23.490932    22.146536   0.40197029    435.67323   -1151.4715 
    3200   -102989.24   -93596.101     228.1002    20724     226647.4   -20.583146    90.579234    -105.2673    -47.06137    435.32192     23.49997    22.155058    0.3766394    435.69856   -1148.7139 
    3300   -102992.11   -93551.012    229.26481    20724    226704.34   -20.381644   -5.1087954   -185.97143     129.9353     435.4145    23.500424    22.155485    0.3303504    435.74485   -1193.2704 
    3400   -102995.58   -93561.075    229.10465    20724    226623.72   -44.034603    79.702715   -113.96326   -97.843268    435.18695    23.502387    22.157336   0.44412548    435.63107   -1184.1677 
    3500   -102995.55   -93600.854    228.13797    20724    226624.24    20.139306    122.20105   -44.787669   -16.995464    435.26752    23.500238     22.15531   0.40383901    435.67136   -1148.5625 
    3600   -102958.96   -93580.435    227.74525    20724    226738.94    -5.447212    13.403298   -39.416275    9.6713409    435.40326     23.50252    22.157461   0.33596842    435.73923   -1165.0003 
    3700   -103004.48   -93582.589    228.79835    20724    226668.15    81.965682    121.51225   -30.937721    155.32252    435.31061    23.501351     22.15636   0.38229501     435.6929   -1171.0626 
    3800   -102926.38   -93549.744    227.69951    20724    226693.33    37.599179    17.185361    122.76349    -27.15131     435.3621    23.501267     22.15628   0.35655006    435.71865   -1199.6582 
    3900   -103013.96   -93536.342    230.15156    20724    226591.94     4.050479    79.618433    252.11084   -319.57784     435.1963    23.500486    22.155544   0.43944759    435.63575   -1217.3308 
    4000   -102924.66   -93516.765    228.45844    20724    226756.37     22.14267   -57.608117    -21.04227     145.0784    435.25437    23.507443    22.162103    0.4104131    435.66479   -1232.8863 
    4100      -102927   -93501.986    228.87424    20724    226684.88     22.49898    86.780452   -44.679133    25.395622    435.53254     23.49623    22.151531   0.27133082    435.80387   -1250.3786 
    4200   -102990.92   -93512.562    230.16951    20724    226611.89   -31.299058   -97.809105   -85.300381    89.212314    435.38198    23.496509    22.151794   0.34661246    435.72859   -1242.2203 
    4300   -102989.04   -93484.375    230.80851    20724    226796.38    10.628382   -190.62283    77.384326    145.12365    435.41895    23.505073    22.159869   0.32812393    435.74708   -1267.2603 
    4400   -102948.68    -93500.35    229.44045    20724    226765.08    1.3857818    108.07987    5.5479712    -109.4705    435.46561    23.502192    22.157153   0.30479713     435.7704   -1252.3027 
    4500   -102988.79   -93508.136    230.22532    20724     226775.5    -10.78561   -102.69886    253.28335   -182.94132    435.48664    23.502164    22.157126   0.29427834    435.78092   -1245.0637 
    4600   -102917.23   -93466.215    229.50548    20724    226899.54    55.907672   -5.6069927   -40.526054    213.85606    435.55312    23.506797    22.161494   0.26104181    435.81416   -1287.5919 
    4700   -102944.72   -93448.152    230.61186    20724    226856.26    -42.78025   -57.799104   -191.09851    120.55686    435.40872    23.508452    22.163054   0.33323856    435.74196    -1302.588 
    4800   -102842.78   -93419.092    228.84194    20724    226892.27    9.0873653   -27.450094    41.461434    13.250755    435.60184    23.505106    22.159899   0.23667791    435.83852   -1330.9051 
    4900   -102913.65   -93412.348    230.72681    20724    226922.74    40.881549    67.329562   -144.68517    200.00026    435.33098    23.513996     22.16828   0.37211129    435.70309   -1342.9151 
    5000   -102970.19   -93395.263    232.51475    20724    226862.86   -48.595288    41.730309    29.533231   -217.04941    435.39998     23.50903    22.163599   0.33760845    435.73759   -1357.8647 
    5100   -102930.56   -93382.191    231.86973    20724    227004.37    4.6196028   -133.92993   -31.827261      179.616    435.55056    23.512296    22.166678   0.26232067    435.81288   -1371.6664 
    5200   -102819.08   -93372.866    229.38889    20724    226953.66    56.907222   -38.897271    208.77398   0.84495978     435.5204    23.510484    22.164969       0.2774     435.7978   -1383.4649 
    5300   -102855.58   -93350.936    230.80781    20724    226881.71    13.499836    111.25873   -110.28421    39.524987    435.55039    23.505947    22.160692   0.26240441     435.8128   -1405.9017 
    5400   -102972.22    -93373.55    233.09114    20724    226714.43    71.750967    178.14345    283.07971   -245.97026    435.50079    23.498618    22.153783   0.28720272      435.788    -1392.894 
    5500   -102849.96   -93350.348    230.68573    20724     226870.5   -9.2624517   -98.118821    78.739744    -8.408278    435.37019     23.51023     22.16473   0.35250533    435.72269   -1408.7427 
    5600   -102928.08   -93360.323    232.34056    20724    226916.55   -35.223443    98.018974   -116.18775   -87.501557    435.57656    23.507046    22.161728   0.24931752    435.82588   -1397.9939 
    5700   -102855.77   -93361.472    230.55675    20724    226867.72    67.351144    49.020676    49.080086    103.95267    435.53949    23.505517    22.160286   0.26785646    435.80734   -1403.3278 
    5800   -102780.83   -93338.747    229.28858    20724     226944.2    36.348561     62.13354   -144.90357    191.81571     435.6343     23.50692    22.161609    0.2204489    435.85475   -1423.0901 
    5900    -102884.4   -93310.531    232.48882    20724    226972.48    13.359425   -72.246641    111.91653   0.40838727    435.58497    23.509716    22.164245   0.24511712    435.83008   -1450.1246 
    6000   -102830.54   -93311.494    231.15758    20724     226824.9   0.92780552    68.405617   -35.823803   -29.798397    435.69262    23.499167    22.154301   0.19129246    435.88391   -1451.9412 
    6100   -102838.36   -93271.391    232.32148    20724    226957.14   -66.242982    22.349552    44.076724   -265.15522    435.63239    23.507641     22.16229   0.22140707    435.85379   -1488.3189 
    6200   -102773.78   -93255.487    231.13935    20724    226823.68    61.320151    38.958879     47.74653    97.255044    435.56795    23.502467    22.157411   0.25362289    435.82158   -1512.5179 
    6300   -102762.16   -93267.069    230.57588    20724       226910      74.0212     168.7245    -225.0012     278.3403    435.74139     23.50226    22.157216   0.16690647    435.90829   -1500.8062 
    6400   -102774.54   -93233.256    231.69775    20724    226911.31   -10.282152   -17.833203   -1.3807578   -11.632495    435.74522    23.502224    22.157183   0.16499087    435.91021   -1529.7122 
    6500   -102761.88   -93209.052    231.97796    20724    226993.69    25.394228   -55.276329   -202.99369     334.4527    435.62029    23.509861    22.164382   0.22745514    435.84774   -1555.9571 
    6600   -102802.61     -93142.9    234.57336    20724    227058.86     26.30643    -32.81352   -93.363123    205.09593    435.58105    23.514294    22.168562   0.24707316    435.82813   -1619.1594 
    6700   -102867.22   -93157.595    235.78553    20724    226934.02   -11.373562   -64.560291   -47.500604    77.940208    435.65287    23.505892     22.16064   0.21116559    435.86403   -1609.8877 
    6800   -102669.43   -93123.889     231.8011    20724    226916.25     32.99873   -122.28867    297.94438   -76.659518    435.75605    23.502188    22.157149   0.15957478    435.91563   -1645.9291 
    6900   -102690.84   -93107.209     232.7259    20724    226983.53   -71.039097   -38.708313   -188.05795    13.648976    435.75565    23.505683    22.160444   0.15977691    435.91542   -1655.3369 
    7000   -102660.26   -93124.232    231.57001    20724    226757.27    27.171799    34.252695    3.4082245    43.854479    435.65593    23.496653    22.151931    0.2096333    435.86557   -1651.4746 
    7100   -102607.91   -93110.837    230.62416    20724    226837.46   -1.5569356   -82.889895    78.669316  -0.45022683    435.55976    23.503402    22.158293   0.25772025    435.81748   -1660.1464 
    7200    -102766.3   -93114.873    234.37223    20724    226808.87   -40.697475    80.602507   -181.36674   -21.328189    435.71364     23.49777    22.152983   0.18077908    435.89442   -1658.4433 
    7300   -102721.63   -93139.151    232.69814    20724    226974.41   -51.063228   -101.83854    56.537784   -107.88893    435.70457    23.506588    22.161297   0.18531594    435.88988   -1628.9805 
    7400   -102850.17   -93136.443    235.88512    20724    226866.64   -72.791819   -2.3549068   -92.403709   -123.61684    435.67639    23.501767    22.156752   0.19940423     435.8758   -1637.4445 
    7500   -102759.55   -93114.854    234.20899    20724    226864.64   -64.573576   -20.534157   -252.10735    78.920782    435.48759    23.506757    22.161456   0.29380491     435.7814   -1660.3174 
    7600   -102768.77   -93123.818    234.21512    20724    226873.98   -3.1334929   -25.707398    51.009286   -34.702367    435.58346    23.504654    22.159474   0.24587205    435.82933    -1654.887 
    7700   -102793.44   -93125.126    234.78248    20724    226883.53   -83.278383   -36.797947    11.771715   -224.80892    435.58206    23.505187    22.159975   0.24657076    435.82863   -1651.0346 
    7800   -102719.65   -93117.121      233.185    20724    226954.77    12.578159     65.52909    184.77205   -212.56666     435.7058    23.505538    22.160307   0.18469752     435.8905   -1661.5033 
    7900   -102671.78   -93092.273    232.62578    20724    226872.95     54.03109    27.968752   -49.058329    183.18285    435.39865    23.509589    22.164126   0.33827642    435.73692   -1690.4576 
    8000    -102711.1    -93042.68    234.78503    20724    226916.29   -58.716757   -9.0704663   -110.41249   -56.667316    435.62916    23.505613    22.160377   0.22301839    435.85218   -1734.1147 
    8100   -102747.28   -93095.223    234.38754    20724    226973.96   -53.562909   -169.76731   -107.72031    116.79889    435.67968    23.507237    22.161908   0.19776001    435.87744   -1682.7905 
    8200   -102672.46    -93058.07    233.47299    20724    226965.84    59.114587    97.820515    101.88361   -22.360361    435.66546      23.5072    22.161874   0.20487133    435.87033   -1723.6343 
    8300    -102744.5   -93039.828    235.66539    20724    226994.87    -19.74639    128.39654   -51.932103    -135.7036    435.62089    23.509906    22.164424   0.22715501    435.84804    -1739.621 
    8400   -102703.95   -92980.656    236.11759    20724    227028.33   -12.454907   -114.38353     108.1414   -31.122591    435.77862    23.507383    22.162046   0.14828818    435.92691   -1800.6333 
    8500   -102687.08   -92973.638    235.87819    20724    227106.21   -84.163255   -26.553714    -147.1635   -78.772554    435.70098    23.513509    22.167822   0.18710952    435.88809   -1801.5303 
    8600   -102625.95   -92995.745    233.85703    20724    227139.78      36.3002    13.910931    111.68324   -16.693573    435.77935    23.513133    22.167467   0.14792681    435.92727   -1786.9197 
    8700   -102646.58   -92953.251    235.38978    20724    227139.89    51.357353   -76.861385    273.71123   -42.777779    435.84283    23.511426    22.165857   0.11618388    435.95902   -1829.4314 
    8800   -102754.08   -93008.517    236.65831    20724     226824.2   -53.556325   -90.643769   -55.386124    -14.63908     435.6802    23.499466    22.154582   0.19750231     435.8777   -1779.6779 
    8900   -102663.03   -92985.219     235.0131    20724    226892.81   -39.208493   -76.178008    91.513801   -132.96127    435.68508    23.502888    22.157809   0.19506113    435.88014   -1803.0737 
    9000   -102657.52   -92963.286    235.41189    20724    226868.35    -5.243568   -67.702902   -51.771429    103.74363    435.66491    23.502165    22.157127   0.20514295    435.87006   -1828.7564 
    9100   -102619.11   -92968.523    234.35193    20724    226862.75    22.352892     142.5257   -81.540192    6.0731716    435.54367    23.505146    22.159937   0.26576554    435.80943    -1825.718 
    9200   -102629.42   -92923.088    235.70559    20724    226889.23   -26.993661   -26.028801   -79.388012     24.43583    435.66716    23.503186    22.158089   0.20401845    435.87118   -1867.2598 
    9300   -102547.43   -92882.318    234.70475    20724     226871.7    2.0745139   -92.589021   -25.839742     124.6523    435.64319    23.502925    22.157843   0.21600278     435.8592   -1911.5636 
    9400   -102710.42   -92904.133    238.13294    20724    227030.54   -35.173891   -162.35357   -95.277327    152.10922    435.49851    23.515056     22.16928   0.28834693    435.78685   -1884.2445 
    9500   -102610.58    -92899.73     235.8153    20724    226921.82     15.85994    64.769359   -74.882347    57.692807    435.39186    23.512304    22.166686   0.34166799    435.73353   -1895.7125 
    9600    -102623.9   -92863.314    237.02299    20724    226976.19   -69.718847   -83.561079   -293.87853    168.28306    435.53218    23.511332    22.165769   0.27151039    435.80369   -1927.7042 
    9700   -102521.11   -92822.668    235.51415    20724    226949.65    40.295621   -42.646846   -94.982664    258.51637     435.6722     23.50618    22.160912   0.20150234     435.8737   -1975.4044 
    9800   -102562.18   -92810.555     236.8056    20724    226806.01   -43.724199    -38.20535    22.000963   -114.96821    435.40458     23.50596    22.160705   0.33531069    435.73989   -1987.4694 
    9900   -102550.25   -92784.877    237.13931    20724    226827.42  -0.10101319    103.28302   -86.609637   -16.976425    435.58643    23.502162    22.157124   0.24438398    435.83082   -2015.7906 
   10000   -102531.04   -92756.982    237.35035    20724    226923.85    11.689989   -54.336471    130.19062   -40.784183    435.85408    23.499939    22.155028   0.11056147    435.96464   -2041.1358 
   10100   -102583.77   -92746.662    238.88131    20724    226809.83   -22.388975    81.416056   -38.509971   -110.07301    435.54567    23.502351    22.157302   0.26476634    435.81043   -2056.1011 
   10200      -102437   -92712.614    236.14402    20724    226911.06   -11.236572   -61.004892    13.403826    13.891351    435.50034    23.508818    22.163399    0.2874288    435.78777   -2087.4645 
   10300   -102586.49   -92713.022    239.76426    20724    226943.34   -4.4362227   -2.3043657   -75.730777    64.726475    435.54117    23.509388    22.163937    0.2670159    435.80818   -2087.6687 
   10400   -102501.26   -92688.244    238.29622    20724    226776.95    -20.26255   -180.80114   -138.15791    258.17139    435.40732     23.50438    22.159215    0.3339377    435.74126   -2118.6618 
   10500   -102536.73   -92674.842    239.48314    20724    226825.48   -33.509271   -74.303809   -174.31112    148.08711    435.42467    23.506427    22.161145    0.3252643    435.74994   -2130.1225 
   10600   -102363.82   -92709.132     234.4515    20724    226769.47    93.776179   -35.359771    165.09863    151.58967     435.2461    23.508345    22.162953   0.41454951    435.66065   -2104.2567 
   10700   -102444.76   -92682.429    237.06544    20724    226734.03    8.4851912    31.693257   -138.21903    131.98135     435.2474    23.506474    22.161189   0.41389973     435.6613   -2130.3496 
   10800   -102596.26   -92777.786    238.42892    20724    226783.97    7.5499803    87.293941    135.26387   -199.90787    435.41944    23.504417     22.15925    0.3278812    435.74732   -2033.9179 
   10900   -102543.43   -92694.681    239.16414    20724    226850.17   -57.488072   -140.65585   -157.34097    125.53261    435.36455    23.509329    22.163881   0.35532328    435.71988   -2114.2955 
   11000   -102447.64   -92671.282    237.40605    20724    226800.72   -19.276488   -266.58325    72.984539    135.76925    435.44719    23.504536    22.159362   0.31400683    435.76119   -2141.0686 
   11100   -102467.19   -92632.935    238.81203    20724    226859.25     86.24632    86.909574   0.56672247    171.26266      435.419     23.50833    22.162939   0.32809981     435.7471   -2182.7017 
   11200   -102477.26   -92609.714    239.62047    20724    226765.69  -0.34228633    8.3073109     156.3361   -165.67027    435.47763      23.5019    22.156876   0.29878606    435.77641    -2205.892 
   11300   -102433.74   -92637.973    237.87737    20724    226882.27    50.601488   -39.318671    336.44972   -145.32658    435.63192    23.503776    22.158646   0.22163761    435.85356   -2176.9033 
   11400   -102267.77   -92627.929    234.09102    20724    226735.06    78.544114   -41.927537    58.669864    218.89002    435.55505    23.498223     22.15341   0.26007451    435.81513   -2192.5373 
   11500   -102601.51   -92625.496    242.25445    20724    227062.68   -53.018809   -51.009765   -435.00281    326.95615    435.73624    23.510304      22.1648   0.16947884    435.90572   -2182.3892 
   11600    -102458.3   -92608.969     239.1782    20724    226868.97    -61.64954   -36.465222   -90.033474   -58.449924    435.62978    23.503145    22.158051   0.22271074    435.85249   -2204.9233 
   11700   -102335.53   -92568.026    237.19122    20724    226893.82    -3.466835   -18.712257    156.07155    -147.7598    435.92326    23.496519    22.151804  0.075971696    435.99923   -2247.9905 
   11800   -102413.09   -92555.606    239.37621    20724    226885.03    115.97434     169.8717    141.25535    36.795958    435.50127    23.507445    22.162104   0.28696686    435.78823   -2270.6286 
   11900   -102427.56   -92591.446    238.85713    20724     226893.9   -28.298282    39.775216   -103.82818   -20.841885     435.6438    23.504058    22.158912   0.21570169     435.8595   -2227.1953 
   12000   -102402.79   -92520.015    239.99033    20724    226939.76   -5.8037455   -54.421203    2.7490066     34.26096    435.77842    23.502803    22.157728    0.1483899    435.92681   -2299.0223 
   12100   -102339.22   -92541.193    237.93226    20724    227030.48   -20.798107    300.63342   -41.103644    -321.9241    435.83428    23.505993    22.160736   0.12045846    435.95474   -2273.4371 
   12200   -102360.74   -92558.954    238.02349    20724    226949.95    -9.666836   -18.081049   -121.05817    110.13871    435.45323    23.512105    22.166498   0.31098565    435.76421   -2261.6608 
   12300    -102411.6   -92558.192    239.27722    20724    226822.92    -13.91543    87.013448   -299.65477    170.89503    435.74892    23.497547    22.152773   0.16314133    435.91206   -2268.5549 
   12400   -102565.76   -92592.984    242.17577    20724    227025.16   -51.924815   -40.535693   -100.02435   -15.214401    435.88732    23.504287    22.159128  0.093942302    435.98126   -2228.1518 
   12500   -102428.78   -92586.912     238.9969    20724    226920.45    83.419061   -56.280318     226.5128    80.024698    435.89764    23.498589    22.153755  0.088781276    435.98642   -2243.1705 
   12600   -102312.94   -92541.335    237.29064    20724    227000.36     3.616607   -40.909147    30.383934    21.375034    435.60125     23.51072    22.165192   0.23697639    435.83822   -2282.5429 
   12700   -102361.61   -92593.208    237.21288    20724    226954.16    15.599808    -12.99316   -195.94525    255.73784    435.87583    23.500922    22.155955  0.099685506    435.97551   -2234.1371 
   12800   -102405.17   -92548.096    239.36613    20724    226963.97   -13.837096   -97.990249    83.309063   -26.830102     435.6694    23.506997    22.161682   0.20290233     435.8723   -2279.9028 
   12900    -102384.2    -92541.27    239.02273    20724    226928.18   -96.145467   -162.30156   -300.02822    173.89338    435.71231    23.503986    22.158843   0.18144724    435.89375   -2283.7066 
   13000   -102372.71   -92538.159    238.81933    20724    226786.47    36.402666    91.047875   -111.64164    129.80176    435.59143    23.499906    22.154997   0.24188274    435.83332   -2300.5145 
   13100   -102356.28   -92513.477    239.01963    20724    227052.47   -59.534644    29.961956    36.621926   -245.18781    435.86511      23.5063    22.161025     0.105046    435.97015   -2311.1048 
   13200    -102406.6   -92519.266    240.10095    20724    226855.91   -44.957884   -39.437507   -132.40233    36.966185    435.61621    23.502835    22.157758   0.22949349    435.84571   -2314.0073 
   13300   -102419.99   -92473.887     241.5281    20724    226980.57   -78.252929    -92.05334    -218.7089     76.00345    435.62995    23.508921    22.163496    0.2226253    435.85257   -2356.3709 
   13400    -102321.7   -92472.024    239.18659    20724    226835.81    29.453585   -124.05418    190.95591    21.459032    435.35377    23.508876    22.163454   0.36071671    435.71448   -2366.7803 
   13500   -102390.38   -92454.548    241.27871    20724    227000.25    41.591212   -54.946076    3.1850175     176.5347    435.66754    23.508926      22.1635   0.20383045    435.87137   -2381.8878 
   13600   -102305.96   -92412.926    240.23936    20724    227050.12   -103.22765   -218.95288   -164.65828    73.928194    435.73902    23.509579    22.164117   0.16808848    435.90711   -2415.4279 
   13700   -102330.23    -92445.73    240.03221    20724    227296.46    55.626615    116.69522   -51.973183    102.15781    435.91174    23.517669    22.171743  0.081729735    435.99347   -2382.0648 
   13800   -102303.38    -92423.62    239.91715    20724    227080.09   -27.446226   -126.99983   -25.524111     70.18526    435.81381    23.509113    22.163677   0.13069468    435.94451    -2408.738 
   13900   -102227.78   -92367.767    239.43752    20724     227290.3    85.426755    102.46926    109.60589    44.205116    435.95434    23.516201     22.17036  0.060429916    436.01477   -2465.5081 
   14000   -102357.12   -92375.199    242.39789    20724    227304.58   -49.242624    284.63631    3.1733828   -435.53757    435.78643     23.52147    22.175327   0.14438663    435.93081   -2454.3599 
   14100   -102188.78   -92346.944    238.99629    20724    226949.41    48.154098   -59.383907    226.80463   -22.958428    435.63217    23.507247    22.161918   0.22151331    435.85369   -2498.4316 
   14200   -102252.32   -92337.691    240.76394    20724    227102.36    38.176263    67.823027   -207.24079    253.94655    435.80637    23.510467    22.164953    0.1344175    435.94078   -2502.4666 
   14300   -102298.12   -92352.939    241.50565    20724    226969.56    92.798709    91.091623   -227.52699     414.8315    435.61738     23.50869    22.163278   0.22890845    435.84629   -2496.6734 
   14400   -102288.25   -92356.524    241.17896    20724    226923.06   -52.926847   -74.586316   -55.304254   -28.889972    435.60407     23.50664    22.161346   0.23556578    435.83963   -2487.2597 
   14500   -102229.99   -92349.428    239.93662    20724    227152.57   -8.1933173   -283.76379     13.94033     245.2435    435.70856    23.515705    22.169891   0.18331962    435.89188   -2492.1553 
   14600   -102172.77   -92358.577    238.32496    20724    226921.56    43.831147    28.354346    129.48628   -26.347186     435.6274    23.505933    22.160679   0.22390037     435.8513    -2492.975 
   14700   -102263.56   -92327.487    241.28455    20724    226919.02   -62.465139   -162.07662    35.164308   -60.483111    435.52227    23.508639     22.16323   0.27646543    435.79873   -2519.2538 
   14800   -102274.86   -92315.123    241.85926    20724    226872.72    65.126988    120.04477    89.994468   -14.658268    435.65661    23.502616    22.157552   0.20929657     435.8659   -2541.4153 
   14900   -102192.18   -92262.815    241.12161    20724    226977.79    38.564389    212.96244     212.0802   -309.34947    435.67424    23.507582    22.162233   0.20047954    435.87472   -2589.9077 
   15000      -102222   -92282.291    241.37282    20724    226796.63   -24.551775    97.584044   -140.16508   -31.074288    435.37925    23.506158    22.160891   0.34797708    435.72722   -2574.8598 
   15100   -102120.87   -92268.959    239.24088    20724    227005.33    37.183355   -57.104637   -344.76309    513.41779     435.4748    23.514391    22.168653   0.30020154      435.775   -2584.9819 
   15200   -102278.82   -92270.603    243.03657    20724    226894.67    25.051548    155.34308   -231.58033    151.39189    435.36189    23.511707    22.166122     0.356653    435.71855   -2587.7857 
   15300   -102229.62   -92283.726    241.52313    20724     226929.5   -22.690085    16.896868    52.039809   -137.00693    435.61143    23.506776    22.161474   0.23188536    435.84331   -2572.6725 
   15400    -102151.4   -92237.483    240.74663    20724    226853.79   -4.2461272    28.321645   -148.33082    107.27079    435.61049    23.502879      22.1578   0.23235381    435.84285   -2622.1601 
   15500   -102154.89   -92187.423    242.04704    20724    227005.01   -9.4425266   -16.241591    114.11319   -126.19918     435.5987     23.51103    22.165484   0.23824917    435.83695   -2668.8194 
   15600   -102109.27   -92161.774    241.56192    20724    226857.95   -60.669371    96.132516   -245.77416   -32.366473    435.54045    23.504985    22.159785   0.26737415    435.80783   -2695.9401 
   15700   -102203.35   -92190.708    243.14397    20724    226980.31    30.319562    167.91218   -183.61228    106.65879    435.67597    23.507666    22.162312     0.199617    435.87558   -2670.7593 
   15800   -102119.54   -92154.167    241.99607    20724    227124.04   -11.282087   -61.709732   -134.49845    162.36192    435.47727    23.520471    22.174385   0.29896626    435.77623   -2699.8458 
   15900   -102146.35   -92157.391     242.5688    20724    226859.71    -26.72546   -20.972779   -109.44164    50.238044    435.34744    23.510285    22.164782   0.36387794    435.71132   -2705.1668 
   16000   -102163.72   -92109.687    244.14919    20724    227062.71    33.050098    11.581264   -18.450733    106.01976    435.57391    23.514686    22.168931   0.25064451    435.82456   -2751.5471 
   16100   -102104.23   -92152.133    241.67371    20724    227068.83    14.356574   -189.02639    222.95267     9.143441    435.59359    23.514473     22.16873   0.24080695    435.83439   -2707.4503 
   16200   -102050.38   -92101.869    241.58664    20724     227115.8   -50.955501   -18.079599   -21.201026   -113.58588    435.60064    23.516714    22.170843   0.23728131    435.83792   -2753.8105 
   16300   -102031.08   -92086.713    241.48599    20724    226992.99    38.874585   -66.101892    72.203481    110.52217    435.45414    23.514309    22.168576   0.31052941    435.76467   -2778.2098 
   16400   -102188.18   -92109.084    244.75773    20724     226967.1    10.124501    10.939042   -69.792272    89.226733    435.47015    23.512536    22.166904   0.30252658    435.77267   -2759.7514 
   16500   -102204.59   -92095.034    245.49731    20724     226791.6    -25.77472   -52.435048     39.69639   -64.585502    435.51906    23.502124    22.157088    0.2780703    435.79713   -2776.9969 
   16600   -102041.34   -92103.111    241.33696    20724    226873.36   -2.6507494    39.530104     79.28177   -126.76412    435.55234    23.505462    22.160235   0.26143016    435.81377   -2766.3389 
   16700    -102089.4   -92129.134    241.87213    20724    226912.54     8.945702    60.464602   -71.149155    37.521659    435.31278    23.513959    22.168246   0.38121052    435.69399   -2743.3183 
   16800   -102196.66    -92094.21    245.32483    20724    227005.73   -45.064709   -94.479118   -119.35127    78.636265    435.43778    23.515411    22.169615   0.31871239    435.75649   -2773.5593 
   16900   -102132.73   -92081.672    244.07694    20724    226870.64   -43.329859   -26.780166    361.32551   -464.53492    435.79437    23.498793    22.153948   0.14041744    435.93478   -2792.8767 
   17000   -102163.43   -92106.231    244.22609    20724    226770.79   -32.839424   -132.50578    178.07231   -144.08481    435.36856    23.505107    22.159901   0.35332168    435.72188    -2771.199 
   17100   -102037.83   -92086.957    241.64397    20724    226767.49   -36.212111   -11.977742    25.023163   -121.68175    435.44983    23.502743    22.157671   0.31268466    435.76252   -2790.8956 
   17200   -102097.84   -92079.444    243.28373    20724    226994.03    74.411277    6.9199509    377.74834   -161.43446    435.76062    23.506093     22.16083   0.15729196    435.91791    -2798.904 
   17300   -102102.17   -92015.723    244.93622    20724    226909.03   -44.424412     203.3869   -444.89729    108.23716    435.73198    23.502463    22.157408   0.17160765    435.90359   -2862.4795 
   17400   -101981.51   -91980.342    242.86532    20724    226768.87    35.558969   -23.308027    80.109221    49.875714    435.32147    23.506279    22.161005   0.37686716    435.69833   -2904.1312 
   17500   -102065.29   -92029.648    243.70242    20724    226898.69    87.967374    135.31664    158.24637   -29.660891    435.47932    23.508745     22.16333   0.29793929    435.77726   -2855.3681 
   17600   -102044.45    -91967.87    244.69668    20724    226856.97    17.388227    285.11381   -239.65702    6.7078947    435.58243    23.503801    22.158669   0.24638388    435.82882    -2915.276 
   17700   -102059.37   -91997.499     244.3394    20724    226946.78    69.299596    7.1408822    130.02934    70.728565    435.34086    23.514974    22.169203   0.36717199    435.70803   -2888.5593 
   17800   -101960.01    -91957.51    242.89761    20724    226841.18   -16.439088    4.7484881   -49.295411   -4.7703414     435.3202    23.510061    22.164571   0.37750195     435.6977   -2927.9748 
   17900   -101948.44   -91932.245    243.23017    20724    226964.39   -1.2097005   -129.28724    114.18161    11.476527    435.47836    23.512174    22.166563   0.29842233    435.77678   -2951.3687 
   18000   -101961.45    -91935.21    243.47418    20724    226712.14     21.06303    -120.1472   -206.74211     390.0784    435.61484    23.495423    22.150771   0.23018062    435.84502    -2958.042 
   18100   -101979.18   -91936.115    243.88281    20724    226835.44    35.720063    67.125608   -41.304056    81.338637    435.42858    23.506837    22.161532   0.32331075    435.75189   -2953.3705 
   18200   -101962.32   -91888.438     244.6312    20724    226820.76   -1.5204841   -26.911878     184.4474   -162.09698      435.751    23.497379    22.152614   0.16209957     435.9131   -3003.2307 
   18300   -101953.71   -91875.494     244.7364    20724    226958.94    4.1633403   -49.737604   -31.563204    93.790828     435.6962    23.506013    22.160755   0.18949827     435.8857   -3011.5127 
   18400   -101971.74   -91883.868    244.97083    20724    226706.83    -20.52085    133.74528   -14.863896   -180.44394    435.30123     23.50361    22.158489   0.38698612    435.68821   -3010.8487 
   18500   -101995.86   -91940.425    244.18312    20724    226689.47    44.528631    116.48519    58.736519   -41.635812    435.37924    23.500604    22.155655   0.34797833    435.72722    -2960.741 
   18600   -101940.79   -91937.872    242.90777    20724    226767.93    22.897069    13.333937   -137.44466    192.80193    435.30342    23.506718    22.161419   0.38589013    435.68931    -2961.873 
   18700   -102010.66   -91903.574    245.43731    20724    226766.21   -47.355694   -172.29278    33.874789   -3.6490917    435.29978    23.506727    22.161427   0.38770966    435.68749     -2993.21 
   18800   -101943.62   -91883.809    244.28938    20724    226885.47   -88.775677   -113.59183   -63.950862   -88.784337    435.53455    23.506569    22.161279   0.27032306    435.80488   -3007.4182 
   18900   -101969.05   -91899.875    244.51688    20724    226652.18    11.769835    29.439171    64.408966    -58.53863     435.2321    23.502643    22.157577   0.42155175    435.65365   -3004.7147 
   19000    -101934.1   -91881.465    244.11504    20724    226791.68   -21.663554    31.890557   -127.58497    30.703752    435.31203    23.507716     22.16236   0.38158344    435.69362   -3017.6789 
   19100   -101827.59    -91847.72     242.3481    20724     226653.3   -2.9812417   -13.585836   -255.33784    259.97996    434.99186    23.509191     22.16375   0.54167009    435.53353   -3057.2599 
   19200   -101978.09   -91830.208    246.42801    20724    226896.39  -0.48528965   -39.863842   -20.393378    58.801352    435.26522    23.514407    22.168668   0.40498785    435.67021   -3070.3848 
   19300   -101735.27   -91804.099    241.16548    20724    226707.54     38.11346    23.782683    163.21879   -72.661095    435.07303     23.50981    22.164334   0.50108612    435.57411   -3102.6369 
   19400   -101811.07    -91783.68    243.50203    20724    226840.46     53.12204   -26.033559    142.32746    43.072216     435.3628    23.508873    22.163451   0.35620061      435.719   -3121.0904 
   19500   -101805.23   -91761.716    243.89362    20724     226762.9    28.836158    95.157957   -106.32867    97.679184    435.35499    23.505065    22.159861   0.36010334     435.7151    -3146.588 
   19600   -101884.46    -91776.84    245.45043    20724    226663.96   -3.6263458   -29.447281    18.645906 -0.077662344    435.26827    23.502277    22.157233   0.40346332    435.67174   -3132.2547 
   19700   -101853.02   -91720.961    246.04374    20724    226757.08   -33.551441   -54.538787   -132.74289    86.627352    435.33387    23.505333    22.160113   0.37066307    435.70454   -3183.2344 
   19800   -101885.55   -91744.802    246.25477    20724    226656.16   -20.514116   -15.463184    86.554699   -132.63386    434.98908    23.509414    22.163961   0.54305771    435.53214    -3166.705 
   19900    -101864.7   -91732.322    246.05159    20724    226676.98   -28.768853    13.763751   -146.00493    45.934619    435.20629    23.504626    22.159446   0.43445348    435.64075   -3178.3878 
   20000   -101886.02   -91703.166     247.2774    20724    226637.77   -106.86491   -199.22997   -180.30527    58.940486    434.96272    23.509173    22.163733   0.55624135    435.51896   -3206.0635 
   20100   -101704.81   -91699.301     242.9707    20724    226712.76    37.076322    23.072984   -104.84779    193.00377    434.77855    23.518041    22.172094    0.6483245    435.42688   -3213.6834 
   20200   -101717.73   -91660.017    244.23836    20724    226675.79    3.2169363    151.39523    125.72509   -267.46951    434.98958    23.510419    22.164908    0.5428122    435.53239   -3253.5579 
   20300   -101772.94    -91695.71    244.71247    20724    226781.22    43.896296    348.63952   -48.546371   -168.40426    435.13108    23.512062    22.166457   0.47206127    435.60314   -3220.7786 
   20400   -101724.97   -91677.666    243.98558    20724    226787.49    21.473483    182.07079    -93.89511   -23.755234    435.32718     23.50709     22.16177   0.37401238    435.70119   -3236.2125 
   20500   -101750.24   -91679.219    244.56157    20724     226653.4    42.328574    -121.7776    213.32753    35.435794    435.18472    23.503986    22.158843   0.44524103    435.62996   -3240.3146 
   20600   -101819.21   -91662.705    246.63741    20724    226939.48   -42.247854   -74.167883    4.0090169   -56.584697    435.15255    23.519684    22.173643   0.46132318    435.61388   -3246.6277 
   20700   -101691.21   -91665.444    243.46273    20724    226697.83    20.867441    19.398856   -80.890146    124.09361    435.10827    23.508354    22.162962   0.48346733    435.59173   -3253.7178 
   20800   -101724.56   -91646.853    244.72394    20724    226797.56    66.427603    140.17758    54.646506    4.4587239    435.32521    23.507665    22.162312   0.37499456    435.70021   -3274.2693 
   20900   -101730.35    -91632.01    245.22514    20724    226739.67    59.181039    79.411958    59.701596    38.429564    435.05747    23.511896    22.166301   0.50886487    435.56634   -3290.6338 
   21000   -101768.32   -91637.504    246.01372    20724    226618.04    24.123056    59.850188   -72.671038     85.19002    434.94371    23.508663    22.163252    0.5657441    435.50946   -3290.5769 
   21100   -101739.18   -91614.447    245.86584    20724    226627.99    6.0027989   -8.2228747   -40.906379    67.137651     435.4053    23.496714    22.151988   0.33494911    435.74025   -3311.2239 
   21200   -101604.88   -91607.092     242.7832    20724    226506.13     81.54383   -142.05635    289.27687     97.41097    434.91728    23.503571    22.158453   0.57896076    435.49624   -3326.6199 
   21300    -101739.5   -91591.389    246.43358    20724    226831.83    56.866528   -128.89681    298.19651    1.2998868    434.85617    23.522117    22.175937   0.60951548    435.46568   -3333.5843 
   21400   -101719.72   -91579.033     246.2533    20724    226561.02    -73.28737   -33.651758   -105.64184    -80.56851    434.84448    23.508387    22.162993   0.61536061    435.45984   -3350.3432 
   21500   -101699.99   -91581.024     245.7259    20724    226599.11    14.014318    66.890024   -163.12079    138.27372    434.90435    23.508745     22.16333   0.58542726    435.48977   -3350.3955 
   21600   -101620.74   -91538.437    244.83549    20724       226653    30.903083   -115.40529    153.34249    54.772058    435.03618    23.507977    22.162606   0.51951104    435.55569     -3394.77 
   21700   -101680.99   -91568.256    245.57461    20724    226519.66    74.709426   -25.984693    170.69955    79.413419     435.0104    23.501758    22.156743   0.53240177     435.5428   -3371.3141 
   21800   -101642.87   -91533.589    245.49076    20724    226752.97   -21.687973    33.142208    67.937641   -166.14377    434.87048     23.51764    22.171716   0.60236035    435.47284   -3395.7444 
   21900   -101675.04   -91525.008    246.48028    20724    226608.98   -32.911459   -21.792767    153.83373   -230.77534    434.78904    23.512374    22.166751    0.6430799    435.43212   -3411.3859 
   22000    -101592.6   -91522.899    244.52968    20724    226567.26  -0.56214828     94.50598   -238.99857    142.80615    434.88112     23.50772    22.162364   0.59704016    435.47816    -3414.659 
   22100   -101762.06   -91534.934    248.35241    20724    226712.53    -91.00131   -127.24324   -68.470467   -77.290224     435.1205    23.508786    22.163369   0.47734767    435.59785   -3396.2295 
   22200   -101743.83   -91542.769    247.71953    20724    226502.79   -33.315464    33.630975   -28.084604   -105.49276    434.85408    23.505106      22.1599   0.61056071    435.46464   -3398.6876 
   22300   -101713.55   -91521.203    247.50792    20724    226716.14   -64.933991     117.1362   -63.864233   -248.07394    434.92889    23.514151    22.168427   0.57315613    435.50204   -3413.6008 
   22400   -101683.28   -91496.865    247.36393    20724    226509.42   -10.925148     -194.794   -296.13701    458.15557    434.59639    23.512418    22.166793   0.73940468     435.3358   -3447.2589 
   22500   -101664.02   -91481.491    247.26934    20724    226760.23    21.022073    68.787477    184.32924    -190.0505    434.93555    23.516258    22.170413    0.5698251    435.50537   -3458.5787 
   22600   -101636.03     -91488.6    246.41703    20724    226550.02   -2.7714502    -29.03872   -13.083217    33.807586    434.78172    23.509513    22.164054   0.64674008    435.42846   -3457.5682 
   22700   -101702.72   -91426.782    249.53768    20724    226626.56   -44.810311   -14.975762   -163.66305    44.207881    435.03747    23.506571    22.161281   0.51886649    435.55633   -3515.4528 
   22800   -101518.77   -91443.773    244.65806    20724    226460.82    25.125263   -11.844377    86.332722   0.88744491    434.93951     23.50062     22.15567   0.56784598    435.50735   -3504.1885 
   22900   -101558.25   -91457.067    245.29399    20724       226456     105.6814    181.02542    115.17312     20.84567    434.84987    23.502792    22.157718   0.61266443    435.46254   -3497.2522 
   23000   -101617.73   -91435.393    247.26489    20724    226707.65   -79.478636   -169.83685    74.798826   -143.39788    434.85439    23.515725    22.169911   0.61040315     435.4648   -3504.9665 
   23100   -101578.64   -91422.917    246.61848    20724    226658.75    38.544941   -10.854384     9.691771    116.79744    434.96212    23.510277    22.164774   0.55654124    435.51866   -3526.5885 
   23200   -101622.83   -91424.761    247.64689    20724    226674.34     4.707581   -70.219716   -102.21041    186.55287    435.08425    23.507785    22.162425   0.49547301    435.57973     -3523.59 
   23300   -101533.49   -91404.958     245.9583    20724     226487.8   -4.3852543   -80.727619    50.138071    17.433785    434.65236    23.509782    22.164308   0.71141811    435.36378   -3548.0345 
   23400   -101502.31   -91339.719    246.78536    20724    226646.49      75.4384    134.32376    204.93828   -112.94684     434.8143    23.513637    22.167942   0.63045076    435.44475   -3614.7514 
   23500   -101424.68   -91306.403    245.70922    20724    226700.22   -2.5570828   -95.044646    199.79348   -112.42008    435.02519    23.510723    22.165195   0.52500414     435.5502   -3642.0728 
   23600   -101551.22   -91327.039    248.28087    20724    226757.42   -32.872056   -80.988661    143.90488   -161.53239    434.76238    23.520795     22.17469    0.6564098    435.41879     -3621.34 
   23700   -101553.94   -91335.183    248.14921    20724     226668.5    37.515252    46.215503   -85.489408    151.81966    434.62214    23.519976    22.173919   0.72653057    435.34867   -3619.7507 
   23800   -101478.55   -91328.365    246.48403    20724    226593.23    33.493691     96.77018    -67.36368    71.074572     434.7511    23.512583    22.166948    0.6620493    435.41315   -3627.8678 
   23900   -101446.63   -91340.213    245.42112    20724    226671.87    59.342897   -17.926123   -93.169879    289.12469    434.76501    23.516286    22.170439   0.65509266    435.42011   -3619.0135 
   24000   -101576.74   -91356.387    248.18791    20724    226729.05    42.298366    24.617973    158.97279   -56.695662    434.93856    23.514559    22.168812   0.56832245    435.50688   -3600.3083 
   24100   -101454.67   -91319.139    246.12817    20724    226722.67   -53.079426   -66.044218    5.9715709   -99.165632     434.9111    23.514971    22.169199   0.58205088    435.49315   -3633.5373 
   24200   -101424.77    -91321.42    245.34673    20724     226892.9    78.712394    119.85251    122.95422   -6.6695448    435.30002    23.513286    22.167611   0.38759223    435.68761   -3634.0349 
   24300   -101512.91   -91309.028    247.78808    20724     226832.4   -26.978868     107.3099     2.020267   -190.26678    435.28254    23.510623    22.165101   0.39633146    435.67887   -3641.2015 
   24400   -101493.77   -91313.521    247.21418    20724    226716.24    3.1036544    196.24478   -40.670145   -146.26367    434.89633    23.515037    22.169262   0.58943456    435.48577   -3645.3244 
   24500   -101458.61   -91244.022    248.04802    20724    226642.06   -8.6935216   -17.478074   -106.49687    97.894381    434.87869    23.511666    22.166084    0.5982562    435.47694   -3718.4053 
   24600   -101362.28   -91219.102    246.31378    20724    226862.51   -7.4113533   -27.298469    80.353958   -75.289548     435.1168    23.516661    22.170793   0.47919846      435.596   -3736.0316 
   24700   -101301.29   -91192.934    245.46815    20724    226740.44    30.179404   -15.913954    133.65289   -27.200722    435.22602    23.507383    22.162046   0.42459151    435.65061   -3769.5354 
   24800   -101348.21   -91210.842    246.17288    20724     226650.1    97.944776    185.89123   -136.06974    244.01284    434.93741    23.510496    22.164981   0.56889427    435.50631   -3758.5324 
   24900   -101341.55   -91166.342    247.09159    20724    226844.22   -14.639139   -28.038421   -31.869355     15.99036    435.11285     23.51582        22.17   0.48117608    435.59402   -3791.7315 
   25000   -101419.08   -91157.764     249.1826    20724    226667.69   -21.920207   -26.283483    141.61617   -181.09331    435.03504     23.50877    22.163354   0.52008064    435.55512   -3807.5251 
   25100   -101420.66   -91183.936    248.58548    20724    226674.29   -26.278451    -129.4669    94.605472   -43.973929    434.95077     23.51139    22.165823   0.56221587    435.51298    -3780.891 
   25200   -101296.93   -91173.329    245.83844    20724    226597.29    84.152764    114.61574   -86.150123    223.99267    435.05334    23.504624    22.159445   0.51092806    435.56427   -3799.3879 
   25300   -101320.79    -91186.53    246.09725    20724    226717.48    39.652789   -26.780813    24.667523    121.07166    434.99487    23.512437    22.166811   0.54016594    435.53503   -3782.3194 
   25400   -101331.26   -91182.944    246.43867    20724    226723.47    -25.65108   -76.042288   -28.618384    27.707433    435.15071    23.508537    22.163134   0.46224585    435.61295   -3784.3548 
   25500   -101329.42   -91172.817    246.63987    20724    226666.61    42.946642    143.44002   0.26193346   -14.862027    435.31587     23.50113    22.156151   0.37966735    435.69553   -3799.9428 
   25600   -101456.96   -91194.388    249.21314    20724    226560.32   -23.422872   -28.537305    66.568845   -108.30016    435.10567    23.501294    22.156305   0.48476585    435.59043   -3780.2996 
   25700   -101279.05   -91181.683    245.20132    20724    226698.49    68.796639   -5.3620858    192.98581    18.766196    435.03291    23.510425    22.164914   0.52114357    435.55406   -3793.5589 
   25800   -101446.96   -91148.701    250.07986    20724    226647.16   -115.38522    29.552181   -89.164573   -286.54328    434.97357    23.509366    22.163916   0.55081471    435.52439   -3820.8268 
   25900   -101373.13   -91119.043    249.00705    20724    226737.12    -47.94159    67.704536   -19.470155   -192.05915    435.15165    23.509219    22.163777   0.46177467    435.61343   -3852.3757 
   26000   -101281.93   -91116.686    246.84966    20724    226645.21   -60.860331    88.519651   -115.58754    -155.5131    434.98932     23.50884    22.163419   0.54293861    435.53226   -3857.8927 
   26100   -101311.14   -91090.163    248.20302    20724       226567    24.765181   -80.269487    119.88298    34.682047    434.96422    23.505461    22.160234   0.55549015    435.51971   -3892.3018 
   26200   -101381.68   -91138.218    248.74917    20724    226652.23   -68.415746   -45.547869    66.856751   -226.55612    434.90593    23.511457    22.165887    0.5846334    435.49057   -3839.4869 
   26300    -101375.3   -91142.556    248.48887    20724     226633.8    25.958844    197.64604   -297.75411     177.9846    434.85399    23.511905    22.166309   0.61060565    435.46459    -3841.972 
   26400   -101398.87   -91124.819    249.49194    20724     226360.1    33.956306    56.472065    53.522638   -8.1257835    434.59485    23.504708    22.159524   0.74017719    435.33502   -3867.6892 
   26500   -101362.11   -91124.956    248.59584    20724    226469.56   -18.777493   -4.6267042   -166.30732    114.60154    434.69838    23.507591    22.162242   0.68840762    435.38679    -3864.373 
   26600   -101358.01   -91095.313    249.21618    20724    226333.74  -0.55693657   -185.71809    208.75056   -24.703279    434.60559    23.503049     22.15796   0.73480446     435.3404   -3898.2448 
   26700    -101323.2   -91108.974     248.0391    20724    226429.67   -50.674177   -51.118668     51.42106   -152.32492    434.48308    23.511344     22.16578   0.79606241    435.27914   -3881.4239 
   26800   -101182.85   -91082.856    245.26521    20724     226524.1    21.082284    242.67882   -25.048551   -154.38341    434.69098    23.510622    22.165099    0.6921111    435.38309    -3908.419 
   26900    -101326.1   -91085.393     248.6822    20724    226565.85    18.141012    108.87013    68.623457   -123.07055     434.7686    23.510689    22.165163   0.65329776     435.4219   -3907.6792 
   27000   -101372.53   -91100.753     249.4367    20724    226376.35    44.074272    -77.59303  -0.97099321    210.78684    434.53902    23.507062    22.161743   0.76809235    435.30711   -3900.7671 
   27100   -101404.62   -91134.021      249.408    20724     226591.6   -26.444608   -189.70651   -212.46545    322.83814    434.77867    23.511753    22.166166   0.64826568    435.42693   -3859.2456 
   27200   -101273.13   -91104.573    246.93008    20724     226519.5   -54.268904     122.1187    27.463601   -312.38901    434.51164    23.515234    22.169448   0.78177958    435.29342   -3888.5125 
   27300   -101380.96   -91075.727    250.24916    20724    226539.07   -1.5072897   -54.732205    154.88834     -104.678    434.55571    23.515057    22.169281   0.75974537    435.31545   -3921.4431 
   27400   -101268.43   -91066.917    247.73035    20724    226349.95    39.127455   -80.672618    69.907008    128.14798    434.31788    23.511674    22.166092   0.87865965    435.19654   -3938.4765 
   27500   -101346.15   -91029.338    250.53032    20724    226224.84   -122.49571    38.481478    52.918401   -458.88699    434.34828    23.504353     22.15919   0.86346009    435.21174   -3974.5575 
   27600   -101190.36    -91033.85    246.63771    20724    226244.45    19.596825    19.799937    281.51882   -242.52828    434.21207    23.509058    22.163626   0.93156253    435.14364   -3976.1086 
   27700   -101163.44   -91031.149    246.04937    20724    226371.64     81.46018    52.764339   -155.23167    346.84788    434.17786    23.516592    22.170728   0.94867113    435.12653   -3979.2534 
   27800   -101305.69   -91019.222    249.79358    20724    226279.44   -36.006999    33.380616   -26.967748   -114.43387    434.10217    23.513852    22.168145   0.98651325    435.08869   -3990.2882 
   27900   -101309.79   -91034.104    249.53163    20724    226252.88    9.8006497   -24.409472   -280.57382    334.38524    434.24066    23.508723    22.163309   0.91727184    435.15793   -3979.9581 
   28000   -101296.02   -91019.404    249.55429    20724    226496.17    11.564552    -104.6005    51.669261      87.6249    434.34732     23.51847    22.172499    0.8639413    435.21126   -3989.6781 
   28100   -101278.84   -90982.761    250.02697    20724    226425.21    28.255583    171.18664    39.785713    -126.2056    434.29282    23.516261    22.170416   0.89118951    435.18401   -4028.2806 
   28200   -101225.49   -90972.553    248.97926    20724     226315.3   -89.465094    15.968173   -149.64466   -134.71879    434.36984    23.508469     22.16307   0.85267978    435.22252   -4037.7887 
   28300   -101184.56   -90958.909    248.31666    20724    226368.11    61.973741    -76.58021   -13.833831    276.33526    434.23684    23.514812    22.169049   0.91918019    435.15602   -4055.7204 
   28400    -101173.9   -90970.975    247.76471    20724    226406.66    33.869875   -45.312668     235.8382   -88.915909    434.21435    23.517423    22.171512   0.93042611    435.14477   -4044.9951 
   28500   -101218.41   -90987.324    248.44852    20724    226248.69   -16.909605     115.1697   -79.536096   -86.362413    434.44623    23.502942     22.15786   0.81448476    435.26072   -4033.3631 
   28600   -101214.05   -90948.795    249.27828    20724    226418.14    10.998257    66.917199    289.76907    -323.6915    434.31791    23.515215     22.16943   0.87864426    435.19656   -4068.6993 
   28700   -101158.16   -90944.373    248.02856    20724     226265.6     -78.1961   -90.119632   -91.849578   -52.619088    434.16422    23.511453    22.165883   0.95548973    435.11971   -4072.6228 
   28800    -101202.6    -90922.35    249.64252    20724    226339.11    32.970516   -92.758291   -11.089817    202.75966    434.35928    23.509991    22.164505   0.85796159    435.21724   -4099.9495 
   28900   -101176.16   -90899.806    249.54784    20724    226216.17   -74.132206      93.2891   -265.34882   -50.336897    434.06954    23.511448    22.165879    1.0028316    435.07237   -4122.8682 
   29000   -101193.29   -90941.755     248.9451    20724    226384.14    30.905946    24.161029   -201.11882    269.67563    434.16989    23.517457    22.171544   0.95265363    435.12255   -4081.3714 
   29100   -101103.01   -90900.425    247.75653    20724    226296.76   -30.484187    115.62574   -261.44847    54.370165    434.26598    23.510317    22.164812   0.90460904    435.17059   -4123.1583 
   29200   -101165.74    -90887.49    249.59383    20724    226313.62    12.098999    65.224966   -205.75466    176.82669    433.94027    23.520014    22.173954    1.0674654    435.00773   -4141.2089 
   29300   -101199.35    -90848.15    251.36554    20724    226418.67    41.207854    218.02252     233.1169   -327.51586    434.09641    23.521241    22.175111   0.98939568     435.0858   -4179.1647 
   29400   -101107.63   -90807.866    250.11637    20724     226368.7     -2.71051    112.12849   -195.88016     75.62014    434.02406    23.520606    22.174512    1.0255722    435.04963   -4219.2694 
   29500   -101179.38   -90825.531    251.42984    20724     226398.2   -35.856671    14.643679   -21.363973   -100.84972    434.20938    23.517118    22.171224   0.93291098    435.14229   -4200.3436 
   29600   -101130.43   -90832.192    250.07942    20724    226231.37    10.554731    102.83972    228.65831   -299.83384    434.16271    23.509715    22.164245   0.95624525    435.11895   -4199.8324 
   29700    -101132.1   -90841.002    249.90593    20724    226382.41    34.334443   0.44720394    -260.9044    363.46053    434.23472    23.515612    22.169804   0.92024038    435.15496    -4190.275 
   29800   -101196.35   -90864.745    250.88958    20724    226170.98   -39.692671   -252.24934    175.13243   -41.961106    434.10125    23.508241    22.162855   0.98697635    435.08822   -4169.9195 
   29900   -101094.08   -90845.043    248.88449    20724    226251.14   -29.092971      367.238   -103.12807   -351.38884    434.10349    23.512346    22.166725   0.98585335    435.08935   -4189.6913 
   30000   -101171.75    -90872.44    250.10524    20724    226292.89   -38.310251   -130.86774   -178.67051    194.60749    434.37359    23.507204    22.161877   0.85080711    435.22439   -4159.3008 
   30100   -101140.13   -90916.878    248.25832    20724    226183.45    30.717596    222.25153   -253.89557    123.79682     434.1211    23.508352    22.162959   0.97705012    435.09815   -4123.9195 
   30200   -101207.67     -90877.5    250.85461    20724    226383.31   -29.492558    -70.56846   -52.424816    34.515603    434.14214    23.518166    22.172212   0.96652918    435.10867   -4157.1341 
   30300   -101141.67   -90823.426    250.56501    20724    226240.38   -84.421774   -41.092287   -67.370694   -144.80234    434.11315    23.511526    22.165952   0.98102694    435.09417   -4213.2117 
   30400   -101146.48   -90839.134    250.30038    20724    226375.01   -2.7104639   -130.81278    15.861219    106.82017    434.32376    23.512817    22.167169   0.87572095    435.19948   -4199.8565 
   30500   -101151.62   -90815.145    251.00791    20724    226334.64   -2.2314088    145.75586   -51.912012   -100.53807    434.13595    23.515805    22.169986   0.96962641    435.10557   -4225.3113 
   30600   -101089.35   -90813.299    249.54055    20724    226277.85    12.747093   -253.71929    22.389901    269.57067    434.39586     23.50582    22.160572   0.83967127    435.23553   -4230.4785 
   30700   -101088.67   -90825.968    249.21631    20724    226433.11    60.642028    162.71186   -193.99409    213.20832    434.39641    23.513868     22.16816   0.83939337    435.23581   -4218.6377 
   30800   -101178.15   -90821.648    251.49416    20724    226472.96   -32.162625   -123.90878   -265.55972    292.98062    434.26039    23.519619    22.173582   0.90740365     435.1678    -4217.454 
   30900   -101080.92   -90816.872    249.24897    20724    226537.78    102.25327    222.55542    338.12461   -253.92024    434.27456    23.522601    22.176393   0.90032199    435.17488   -4228.4658 
   31000   -101093.09   -90809.154    249.73205    20724    226497.21   -48.173729   -86.098039   -71.405761    12.982614    434.27588    23.520459    22.174374   0.89966226    435.17554   -4232.5006 
   31100   -101186.16    -90804.68    252.10075    20724    226499.87    68.839287      327.303   -61.081699    -59.70344     433.8802    23.531319    22.184613    1.0974997     434.9777   -4244.3338 
   31200   -100981.18   -90758.151    248.25288    20724       226394    39.977435    20.181191    174.34026   -74.589147    434.18943     23.51744    22.171527   0.94288265    435.13232   -4292.8485 
   31300   -101117.18   -90798.288     250.5808    20724    226460.37   -73.712974   -97.981815    -174.1345     50.97739    434.26105    23.518948    22.172949   0.90707395    435.16813   -4247.0166 
   31400   -101125.15   -90770.507    251.44899    20724    226447.31   -92.988564   -12.030817   -47.969167   -218.96571    434.21846    23.519423    22.173397   0.92837025    435.14683   -4276.2735 
   31500   -101070.24   -90751.861    250.56836    20724    226336.55   -60.415471   -12.420294   -168.09078  -0.73533852    433.90383    23.522193    22.176009    1.0856829    434.98952   -4301.8455 
   31600   -101029.54   -90722.395    250.29558    20724    226434.35   -89.287581   -200.59616   -149.96816    82.701578    434.23858    23.518205    22.172248   0.91831023    435.15689   -4326.5413 
   31700   -101075.26   -90741.154    250.95036    20724    226268.82    19.228041   -19.206863   -47.387033    124.27802    434.27509    23.508618    22.163211   0.90005632    435.17514   -4318.8697 
   31800   -100938.51   -90704.313    248.52421    20724    226311.42   -35.277686   -123.53599    127.57448   -109.87154    433.98534    23.518678    22.172695    1.0449292    435.03027   -4351.0769 
   31900   -101016.92   -90678.097    251.06496    20724    226319.89   -30.811859    145.56016    37.329714   -275.32545    434.05781    23.517156    22.171259    1.0086969     435.0665   -4380.4433 
   32000    -101109.2    -90674.93    253.38267    20724     226241.7   -72.321838    51.698179   -153.52034   -115.14335     434.3836    23.504273    22.159114   0.84579759     435.2294   -4385.9912 
   32100    -100945.9   -90690.313    249.04366    20724    226416.51   -2.3829621   -119.55959   -168.11072    280.52142    434.34821     23.51431    22.168577   0.86349388    435.21171   -4366.9344 
   32200   -100970.87   -90671.981    250.09507    20724    226346.85    19.240146  -0.43412424    14.459033     43.69553    434.17083    23.515495    22.169694   0.95218484    435.12302   -4390.8848 
   32300   -101059.66   -90690.585    251.79948    20724    226668.73   -83.452512   -70.345138   -43.042627   -136.96977    434.55336    23.521849    22.175684   0.76091878    435.31428   -4359.2329 
   32400   -100998.33   -90723.655     249.5072    20724    226553.26   -54.426125   -51.975066   -119.66883    8.3655251    434.26428    23.523683    22.177413   0.90546022    435.16974   -4331.4901 
   32500    -100927.3    -90723.15    247.79436    20724    226393.05    61.550865    3.3590594    18.969293    162.32424    434.41994    23.511151    22.165598   0.82762798    435.24757   -4342.8438 
   32600   -101012.11    -90699.92    250.41809    20724    226561.49    -44.69275    1.1750056   -121.20309   -14.050162    434.25415    23.524385    22.178075   0.91052258    435.16468   -4360.1954 
   32700   -101039.65    -90731.33    250.32401    20724    226183.99    23.370004    -165.2381    38.104622    197.24349    433.98799    23.511984    22.166384    1.0436039     435.0316    -4344.709 
   32800   -100992.23   -90700.795    249.91398    20724    226284.83    83.578575    157.72024   -36.266364    129.28185    434.18003    23.512024    22.166421   0.94758392    435.12762   -4376.1799 
   32900   -101075.58   -90742.999     250.9132    20724    226246.82    13.817574    -73.62181    -220.3703    335.44483    433.98663    23.515287    22.169497    1.0442839    435.03092   -4329.7178 
   33000   -101046.08   -90736.252    250.36068    20724    226198.52   -56.851022    -146.9647    -72.36638    48.778018     434.0197    23.511881    22.166286     1.027752    435.04745   -4338.7262 
   33100   -101063.68   -90720.282    251.17588    20724    226169.34   -2.4924416     9.731636     193.3157   -210.52466    433.88805    23.513931    22.168219    1.0935754    434.98162   -4360.0214 
   33200   -101071.34   -90767.321    250.21964    20724    226289.76   -21.302428   -173.43046    10.748983    98.774188    433.98789    23.517484    22.171569    1.0436526    435.03155   -4309.4515 
   33300   -101094.24   -90788.546    250.26031    20724    226089.01   0.40464864    82.147907   -200.22431    119.29035    433.75533    23.513351    22.167673    1.1599358    434.91526   -4296.6992 
   33400   -101080.56   -90754.383    250.75764    20724    226326.87    62.770696   -89.553293     105.6189    172.24648    434.09484    23.516515    22.170655    0.9901779    435.08502   -4327.9195 
   33500   -101194.51   -90737.071    253.94517    20724     226094.7   -127.04614    15.956028   -179.03272   -218.06173    433.81497    23.512031    22.166428     1.130117    434.94508   -4344.5822 
   33600   -101022.31   -90739.841    249.69644    20724    225868.07    36.670702   -51.716482    -37.05562    198.78421    433.75923    23.501754    22.156739    1.1579855    434.91721    -4355.667 
   33700   -101050.74   -90724.795    250.75217    20724    226214.21    23.793423     59.84835   -7.2432146    18.775135     433.7469    23.520089    22.174025     1.164151    434.91105   -4363.6679 
   33800   -101159.25   -90703.363    253.90752    20724    226182.54   -29.481464   -74.963485   -87.741849    74.260942    433.85084    23.515625    22.169817    1.1121794    434.96302   -4385.1077 
   33900   -101067.09   -90728.329    251.06334    20724    226268.67   -22.210152   -265.10691   -68.139647     266.6161    433.81214    23.521151    22.175026    1.1315314    434.94367   -4357.8497 
   34000   -101019.73   -90688.308    250.88522    20724    226234.83    54.712407    199.09778   -112.07154    77.110981    434.18854    23.509196    22.163755   0.94333154    435.13187   -4404.1875 
   34100   -101122.81   -90718.075    252.66544    20724    226158.12    -97.18326   -23.661794    27.300307   -295.18829     433.9048    23.512894    22.167241    1.0851978       434.99    -4372.072 
   34200   -101025.47   -90692.618    250.91994    20724    226102.47      139.211    241.05523    -32.86625    209.44402    433.82921    23.512049    22.166445    1.1229936    434.95221   -4410.7092 
   34300   -101000.68   -90673.653    250.77849    20724    226299.47   -34.211647   -132.30522   -5.5827701    35.253045    434.00801    23.517444    22.171531    1.0335964     435.0416   -4414.6672 
   34400   -101024.64   -90727.218    250.05957    20724    226226.88    59.378312    99.531094    10.104637    68.499205    434.12664    23.510458    22.164945   0.97428073    435.10092   -4372.1034 
   34500    -101082.4   -90710.762    251.86172    20724    226294.55   -5.4612221    40.861491   -130.32233    73.077174    434.12902     23.51391      22.1682   0.97308863    435.10211   -4382.3334 
   34600   -100970.33    -90691.23    249.61451    20724    226273.09   -100.11873   -311.29772   -175.01966    185.96118    433.95561    23.517493    22.171577    1.0597967     435.0154   -4400.4921 
   34700   -101072.24    -90677.68    252.41838    20724    226085.03   -14.913005   -38.863319    129.88527   -135.76097    433.59725     23.51743    22.171518    1.2389747    434.83623   -4425.4295 
   34800   -101057.58   -90706.121    251.37169    20724     225985.4   -38.778412   -97.862649   -195.48226    177.00967    433.63656    23.511182    22.165628    1.2193204    434.85588   -4399.6597 
   34900   -101012.97   -90671.489    251.12937    20724     226051.7    5.2140772   -128.26332    155.18757   -11.282022    433.64968    23.514275    22.168543    1.2127594    434.86244   -4435.1366 
   35000   -101031.72   -90673.488    251.53629    20724     226110.4    24.370539    140.52818    -84.29831    16.881751    433.56938    23.519505    22.173475    1.2529098    434.82229    -4434.208 
   35100      -100954   -90650.062    250.21762    20724    225925.04   -41.248329   -165.21189   -117.95384    159.42074    433.60511    23.508894    22.163471    1.2350455    434.84015   -4460.6128 
   35200   -101003.08   -90663.768    251.07679    20724    226080.33    71.742665   -5.9731964    86.621263    134.57993    433.69013    23.514667    22.168913    1.1925368    434.88266   -4447.4982 
   35300    -100975.2   -90646.699    250.81413    20724    225882.07   -38.875342    24.536346    178.56279   -319.72517    433.61675    23.506343    22.161066    1.2292233    434.84598   -4467.2407 
   35400    -100924.5   -90656.932     249.3344    20724    225826.34   -1.6549623    22.332818   -106.70435    79.406648    433.34845    23.510718     22.16519    1.3633739    434.71183   -4461.8693 
   35500   -101021.85   -90633.077    252.27789    20724    226040.06   -37.847003   -27.189672   -89.740219    3.3888811    433.50067    23.517711    22.171783    1.2872671    434.78793   -4480.9583 
   35600   -101039.97   -90673.343    251.74002    20724    225940.36   -56.519108   -37.674889   -23.417759   -108.46468    433.26021    23.519047    22.173043    1.4074973     434.6677   -4441.3795 
   35700   -101007.68   -90658.487    251.31658    20724    225873.64    18.829113   -48.511012    156.68933   -51.690977     433.3135    23.514128    22.168405    1.3808491    434.69435   -4463.2347 
   35800    -100924.4   -90603.176    250.63747    20724    225867.61   -38.119676    12.294971   -107.75686   -18.897137    433.38202    23.511955    22.166357    1.3465905    434.72861   -4516.7054 
   35900   -100957.94   -90601.791    251.48556    20724    225913.21   -37.102825    127.76423    30.600527   -269.67324    433.68144     23.50621     22.16094    1.1968823    434.87832   -4518.8354 
   36000   -101035.85   -90642.542      252.388    20724    225868.36   -22.150278    32.268872   -26.701731   -72.017974    433.67774    23.503977    22.158835    1.1987319    434.87647   -4480.3343 
[...]
  491300    -93436.71   -80724.539    308.69851    20724     221742.2    149.78386    220.48276   -333.55477    562.42358     424.1755    23.547706    22.200061    5.9498494    430.12535   -22022.812 
  491400   -93546.831   -80734.458    311.13178    20724    221691.02    11.355401   -6.8421566    2.6337864    38.274572    424.48614    23.536371    22.189376    5.7945309    430.28067   -22010.454 
  491500   -93540.442   -80750.246    310.59325    20724    221803.41    84.402644     131.1744    334.56477   -212.53123    424.10523    23.552907    22.204965    5.9849849    430.09022   -21993.816 
  491600   -93637.203   -80666.492    314.97682    20724    221960.73   -86.084914   -484.81317    147.84129    78.717137    424.27943     23.55642    22.208277    5.8978847    430.17732   -22068.333 
  491700   -93382.247   -80637.803    309.48223    20724    222058.49    101.77035    118.66659   -129.08172    315.72619    424.34257    23.559855    22.211515    5.8663154    430.20888   -22101.673 
  491800    -93445.65   -80609.413     311.7113    20724    222315.79    102.79689    284.28812   -239.51571    263.61826    424.15853    23.578614      22.2292    5.9583328    430.11687   -22121.538 
  491900   -93416.267   -80608.501     311.0199    20724    222173.38    -23.85823    9.8351982   -245.27315    163.86326    424.38205    23.564853    22.216227    5.8465759    430.22862   -22124.955 
  492000   -93435.042   -80626.044    311.04984    20724    221981.95   -21.283723    89.585307   -188.58727    35.150795    424.35663    23.555404    22.207318    5.8592828    430.21592   -22115.898 
  492100   -93448.699   -80596.915    312.08884    20724     221885.6   -47.817933    38.203218   -65.947858   -115.70916    424.41525    23.548664    22.200965    5.8299745    430.24523   -22149.784 
  492200   -93419.175   -80603.343    311.21579    20724    222127.92   -5.9596598    116.19676    37.411776   -171.48751    424.56326    23.557413    22.209212    5.7559693    430.31923   -22137.487 
  492300   -93364.499   -80622.014    309.43465    20724    222186.99    99.427172    233.87771    -3.554394    67.958196    424.76896    23.554839    22.206786    5.6531184    430.42208   -22121.488 
  492400   -93385.353   -80621.235    309.95998    20724    221912.07   -60.734323    6.7952327    50.548114   -239.54632    424.73593    23.541177    22.193906    5.6696359    430.40556    -22126.61 
  492500   -93493.654   -80602.264    313.05061    20724    222021.86   -192.41405   -168.03909   -362.42302   -46.780023    424.95034    23.541059    22.193794    5.5624307    430.51277   -22138.604 
  492600   -93345.669   -80593.417    309.67183    20724    221635.65     82.45802   -113.57278    7.9585412     352.9883    424.60771    23.530062    22.183428    5.7337425    430.34146   -22173.903 
  492700   -93392.012   -80628.934    309.93471    20724    221983.06    94.239986    241.33367   -72.952384    114.33867    425.11056    23.534566    22.187673    5.4823213    430.59288   -22128.876 
  492800    -93316.39   -80564.948    309.65216    20724    221785.38   -51.259951     69.30395    42.800538   -265.88434       425.11      23.5241    22.177806    5.4826019     430.5926   -22195.127 
  492900   -93326.425   -80614.107    308.70207    20724    222138.98    16.799916    117.17008    -353.1777    286.40736    425.28851    23.537904     22.19082    5.3933462    430.68185   -22138.528 
  493000    -93312.57   -80656.796    307.32898    20724    221782.06    -12.30562    77.993321   -17.851045   -97.059137    424.88572    23.530132    22.183493    5.5947412    430.48046   -22110.591 
  493100   -93455.588    -80639.71    311.21688    20724    222318.05   -18.219173    21.964424   -128.50774    51.885801    424.94145    23.557002    22.208826    5.5668735    430.50833   -22108.947 
  493200   -93445.739   -80663.168    310.40808    20724    221869.87   -142.77679   -62.294054   -381.82256     15.78623     424.8006    23.537147    22.190107    5.6373016     430.4379   -22099.073 
  493300   -93442.325   -80625.569    311.23822    20724    222004.48    73.568241   -215.57337    84.884266    351.39383    424.80999    23.544026    22.196592    5.6326031     430.4426   -22140.949 
  493400   -93422.054   -80628.197    310.68216    20724    221931.61   -15.006007   -93.309218    208.75341   -160.46221    424.63946    23.544887    22.197404    5.7178684    430.35733   -22141.158 
  493500   -93351.283   -80615.964    309.26063    20724    222030.01   -12.092874   -154.01234   -45.138734    162.87245    424.42817    23.555968     22.20785     5.823517    430.25168   -22149.644 
  493600    -93321.22   -80637.564    308.00607    20724    222139.74    48.407186    104.77933   -156.87268     197.3149    424.32971    23.564521    22.215914    5.8727465    430.20245   -22127.716 
  493700   -93423.498   -80581.692    311.84654    20724    221999.01   -88.437781   -169.11492    36.758429   -132.95685    424.00553    23.566059    22.217364    6.0348335    430.04037   -22184.968 
  493800   -93398.304   -80594.102    310.93335    20724    222110.48    19.175533    27.400375   -342.13347    372.25969    424.17715    23.567206    22.218446    5.9490241    430.12618   -22174.306 
  493900   -93378.896   -80606.718    310.15571    20724    221862.91   -48.288534   -306.80961    280.49615   -118.55214    424.21959    23.552891    22.204949    5.9278073    430.14739   -22169.817 
  494000   -93393.254    -80610.82    310.40477    20724    222046.69   -21.431499    12.740715   -53.996267   -23.038946    424.38164    23.558144    22.209902     5.846779    430.22842    -22163.36 
  494100   -93415.545   -80605.636    311.07195    20724    221635.52   -8.3238225     125.8228   -63.677372   -87.116891    423.99574     23.54703    22.199424    6.0397299    430.03547   -22187.584 
  494200   -93438.319   -80611.105    311.49219    20724    221949.62    38.920171   -139.89839   -9.7798854    266.43879     423.9344    23.565415    22.216757    6.0703981     430.0048   -22175.507 
  494300   -93295.729   -80603.124    308.22337    20724    221889.79    21.017333     182.3682   -115.89472   -3.4214808    423.98187    23.560919    22.212518    6.0466629    430.02854   -22185.586 
  494400   -93439.534   -80584.161    312.17599    20724    222070.01   -137.49674   -299.54705   -290.38833    177.44516    424.51672    23.555633    22.207535    5.7792423    430.29596    -22192.19 
  494500   -93337.065   -80610.155    309.05643    20724    221723.49    24.882405     19.13887    182.72922   -127.22087    424.46958    23.538554    22.191433    5.8028082    430.27239   -22187.527 
  494600    -93388.64   -80610.061    310.31114    20724    221641.72    100.25676   -14.185442    40.572181    274.38353    424.22715    23.540937     22.19368    5.9240232    430.15118   -22198.554 
  494700   -93430.313   -80617.456    311.14354    20724    221851.42    66.230633    -68.74572    15.538025    251.89959    424.01276    23.558024    22.209789    6.0312183    430.04398   -22181.592 
  494800   -93402.407   -80617.596    310.46248    20724    221788.85    112.59341    88.951932    140.75366    108.07464    423.85923    23.558967    22.210678    6.1079873    429.96721   -22189.665 
  494900   -93379.967   -80621.289    309.82788    20724    221429.58   -40.350003    53.637959   -118.06697   -56.620997    423.74333    23.543097    22.195717    6.1659354    429.90926   -22194.037 
  495000   -93403.919   -80568.654    311.68769    20724    221665.43    50.604872    233.83888   -65.600903   -16.423362    423.75116    23.555414    22.207328    6.1620184    429.91318   -22244.853 
  495100   -93410.067   -80577.283    311.62744    20724    221364.25    34.397398    122.99493   -52.973807    33.171067    423.64673    23.542308    22.194972    6.2142359    429.86096   -22246.486 
  495200   -93374.503   -80554.715    311.31186    20724    221540.27   -16.276495    99.829538   -236.23211    87.573087    423.82085    23.546827    22.199233     6.127176    429.94802   -22261.906 
  495300   -93366.832   -80546.942    311.31433    20724    221715.48    -67.31008    -29.55714   -228.07534    55.702236    423.86087    23.555025    22.206961    6.1071671    429.96803   -22262.718 
  495400    -93279.93    -80522.65    309.79392    20724    221780.16   -15.082266    251.10944   -191.64679   -104.70945     423.7766    23.560802    22.212408    6.1492996     429.9259   -22287.806 
  495500   -93217.896   -80492.939    309.00902    20724    221652.14   -96.685807   -209.69962   -9.2845834   -71.073217    423.92942    23.549755    22.201993    6.0728882    430.00231   -22320.465 
  495600   -93384.674   -80538.484      311.953    20724    221483.59   -15.728481   -143.91773   -22.868251    119.60054    423.64774    23.548625    22.200927    6.2137318    429.86147   -22287.616 
  495700   -93302.995   -80533.106     310.1001    20724    221415.85   -57.618177    40.026725   -84.587647   -128.29361     423.3471    23.553382    22.205413    6.3640518    429.71115   -22295.853 
  495800   -93138.722   -80514.134    306.57167    20724    221264.63    11.597181    111.67023    -138.9316    62.052913    423.02231    23.554375    22.206349    6.5264464    429.54875   -22323.505 
  495900   -93332.071   -80545.449    310.50645    20724     220892.1    33.358778   -77.901605   -33.537839    211.51578    422.93085    23.537082    22.190046    6.5721745    429.50303   -22310.384 
  496000   -93306.471   -80515.982    310.60035    20724    221002.23    -107.7734    -385.4412    63.722297   -1.6012865    422.88192    23.544311    22.196861     6.596641    429.47856   -22330.503 
  496100   -93255.342   -80546.244    308.62388    20724    221094.63    65.136142    185.65409    24.661848   -14.907511    423.08604    23.543551    22.196144    6.4945784    429.58062   -22307.871 
  496200   -93393.286   -80557.931    311.68986    20724    221223.79    -8.817042   -26.272875   -138.89246     138.7142    423.57969      23.5367    22.189685    6.2477556    429.82744   -22290.433 
  496300   -93342.067   -80535.292    310.99584    20724     220952.7   -44.319088   -200.37044   -228.41802     295.8312    423.06533    23.536569    22.189562    6.5049375    429.57026   -22321.392 
  496400    -93418.98     -80491.1    313.93671    20724    221020.57   -92.464306   -170.91009    116.15527    -222.6381    422.86751    23.545689     22.19816    6.6038426    429.47136   -22363.165 
  496500   -93449.509   -80550.249    313.24172    20724    221137.53     -78.1743   -8.0350739    86.238612   -312.72644    422.91788    23.550515     22.20271    6.5786576    429.49654   -22301.971 
  496600   -93443.124   -80574.087     312.5078    20724    220957.95     30.80283  -0.85901359   -213.51806    306.78556    422.77128    23.545032     22.19754     6.651959    429.42324   -22296.148 
  496700   -93448.346   -80541.678    313.42163    20724    220511.87    39.460186    59.883998   -19.028009     77.52457    422.65692    23.524435    22.178122    6.7091376    429.36606   -22344.862 
  496800   -93343.282   -80520.669    311.38043    20724    220681.07    -125.0417   -252.61003   -148.95193    26.436871    422.34777     23.54207    22.194748    6.8637164    429.21148   -22353.367 
  496900   -93298.916   -80529.884    310.07932    20724    220419.76   -44.644666    93.154732   -340.32625    113.23752    422.28426    23.529897    22.183272     6.895468    429.17973   -22361.704 
  497000   -93414.128   -80514.956    313.23957    20724    220846.31   -54.429306   -166.43807   -79.359287    82.509437    422.54877     23.54528    22.197774    6.7632131    429.31199   -22360.641 
  497100   -93378.583   -80558.052    311.32991    20724    220766.29   -129.36833    -81.34039    127.08516   -433.84976     422.2615    23.549021    22.201301    6.9068503    429.16835   -22318.167 
  497200   -93339.758   -80513.205    311.47612    20724    220536.45    69.282668   -82.001769   -10.006484    299.85626    421.92229    23.546218    22.198659    7.0764526    428.99875   -22382.306 
  497300   -93366.295   -80540.593    311.45548    20724    220573.24   -122.40024    49.782652   -495.14762    78.164253    422.16201    23.541495    22.194206     6.956593    429.11861    -22348.41 
  497400   -93426.886   -80574.563    312.10194    20724    220887.58    47.051919   -91.882297    36.048406    196.98965      422.309    23.554164     22.20615    6.8831005     429.1921   -22313.882 
  497500   -93362.217   -80549.719    311.13482    20724    220984.81   -102.36867   -16.336923   -267.54218   -23.226905    422.33913    23.558507    22.210244    6.8680329    429.20717   -22327.448 
  497600   -93256.376   -80510.607    309.51439    20724     221230.2    33.866745    32.739049    107.54212   -38.680933    422.80098    23.558706    22.210431    6.6371103    429.43809   -22364.988 
  497700   -93416.971   -80542.012    312.65161    20724    220937.01   -121.72562   -286.94975   -262.31999    184.09289    422.55992    23.549804    22.202039    6.7576381    429.31756   -22340.799 
  497800   -93339.504   -80554.424    310.46902    20724    220713.54    21.974024     53.82231   -4.0997089     16.19947    422.03457    23.552537    22.204616    7.0203167    429.05488   -22347.422 
  497900   -93282.316   -80510.383    310.14974    20724    221045.95    -47.58699     97.35319   -57.016453   -183.09771     422.0325    23.570324    22.221384    7.0213504    429.05385   -22375.261 
  498000    -93372.45   -80560.881    311.11227    20724    220882.68    128.10247   -45.240303    174.03909    255.50863    422.05791    23.560908    22.212508    7.0086433    429.06656    -22340.84 
  498100   -93360.409   -80524.415    311.70539    20724    221077.21   -66.294134   -36.043354   -223.38804    60.548997    422.09843    23.570149     22.22122    6.9883846    429.08682   -22364.837 
  498200   -93376.656   -80505.845    312.55088    20724    221138.23    7.7979524    124.78125    67.543551   -168.93095    421.98631    23.576533    22.227239    7.0444459    429.03075   -22386.143 
  498300   -93309.836    -80480.88     311.5345    20724    221040.77     106.3077    199.61207    111.72941    7.5816177    421.89181    23.573977    22.224829    7.0916938    428.98351   -22419.373 
  498400   -93299.484    -80451.39    311.99923    20724     221104.3    -46.80215    95.661918   -52.586634   -183.48173    421.95336    23.575645    22.226401    7.0609204    429.01428     -22441.9 
  498500   -93229.666   -80459.454    310.10795    20724    220529.51    6.1143248   -68.096514    3.4721174    82.967371    421.62247    23.554219    22.206201    7.2263652    428.84883   -22460.282 
  498600   -93313.272   -80452.427    312.30886    20724    220676.77    17.616286    235.72709   -302.35555    119.47732    421.75286    23.558439     22.21018    7.1611717    428.91403   -22464.454 
  498700   -93367.887   -80425.629    314.28586    20724    220913.24   -108.71609   -360.70883    102.23356   -67.672989    421.89683    23.567035    22.218284    7.0891843    428.98602   -22477.625 
  498800   -93157.199   -80443.505    308.73548    20724    220866.73   -63.907008   -151.40512    151.73389   -192.04979    421.29898    23.581268    22.231703    7.3881096    428.68709   -22464.056 
  498900   -93263.349   -80497.361    310.00538    20724     221024.5    62.499296   -243.52814    39.962256    391.06378    421.33282    23.588742    22.238749    7.3711916    428.70401   -22414.247 
  499000   -93223.712   -80468.585    309.74165    20724     221085.8   -11.746267    202.74687   -52.870482   -185.11519    421.29291     23.59313    22.242886    7.3911452    428.68405   -22438.213 
  499100   -93268.126   -80530.525    309.31603    20724    220471.52    102.36804      28.5504    283.23471   -4.6809965    420.92392    23.570655    22.221697    7.5756417    428.49956   -22409.281 
  499200    -93240.47     -80494.3    309.52414    20724    221049.55   -20.224561   -2.4922915    48.578495   -106.75989    421.21269    23.593442     22.24318    7.4312534    428.64395   -22418.687 
  499300   -93289.823   -80510.205    310.33638    20724    220655.58   -33.206537   -124.93368   -108.64978    133.96386    420.92259     23.58053    22.231007    7.5763047     428.4989   -22416.435 
  499400   -93308.431    -80486.46    311.36487    20724    220800.44   -54.444976   -269.99685    10.427413    96.234508    421.07068     23.58412    22.234392    7.5022612    428.57294   -22436.648 
  499500   -93308.522   -80560.139    309.57788    20724    220757.65   -70.917867   -246.69096   -141.55502    175.49239    420.91023    23.586329    22.236474    7.5824875    428.49271   -22366.793 
  499600   -93379.996   -80547.359    311.62387    20724    220954.58   -2.0048252   -223.90848     160.4324    57.461604    420.78342    23.600402    22.249742    7.6458898    428.42931   -22379.546 
  499700   -93418.531   -80533.778    312.88944    20724    220975.29   -40.796653    85.795316    1.4769203    -209.6622    420.92684    23.597487    22.246994    7.5741809    428.50102   -22391.731 
  499800   -93436.766   -80532.752    313.35717    20724    220603.39   -13.079959    98.032772   -84.163551   -53.109098    420.86604    23.579325     22.22987    7.6045783    428.47062   -22409.585 
  499900    -93230.63    -80539.27    308.19314    20724    220869.69    58.979298    71.636769    66.969768    38.331357    421.25589    23.582632    22.232989    7.4096564    428.66554   -22395.293 
  500000   -93292.072   -80498.346    310.67898    20724    220770.34    32.064578   -165.25608    128.92622    132.52359    421.55028    23.569094    22.220225    7.2624591    428.81274   -22440.158 
Loop time of 51023.9 on 32 procs for 500000 steps with 20724 atoms

Performance: 1.693 ns/day, 14.173 hours/ns, 9.799 timesteps/s
97.3% CPU use with 32 MPI tasks x no OpenMP threads

MPI task timing breakdown:
Section |  min time  |  avg time  |  max time  |%varavg| %total
---------------------------------------------------------------
Pair    | 6282.6     | 9010       | 12268      |2424.3 | 17.66
Bond    | 0.39408    | 0.47903    | 0.57581    |   7.2 |  0.00
Kspace  | 8581.6     | 11857      | 14602      |2128.0 | 23.24
Neigh   | 8086.4     | 9882.2     | 11326      |1250.4 | 19.37
Comm    | 471.88     | 3673.1     | 7019.8     |4253.0 |  7.20
Output  | 13.513     | 51.256     | 79.615     | 341.6 |  0.10
Modify  | 13007      | 16508      | 21249      |2350.8 | 32.35
Other   |            | 41.94      |            |       |  0.08

Nlocal:    647.625 ave 710 max 598 min
Histogram: 3 3 5 7 2 1 3 5 2 1
Nghost:    7383.28 ave 7917 max 7000 min
Histogram: 6 4 7 1 0 1 4 5 3 1
Neighs:    238529 ave 279831 max 211799 min
Histogram: 5 8 5 0 3 0 3 6 1 1
FullNghs:  477055 ave 563570 max 424026 min
Histogram: 4 7 7 0 3 0 4 6 0 1

Total # of neighbors = 15265764
Ave neighs/atom = 736.622
Ave special neighs/atom = 2
Neighbor list builds = 500000
Dangerous builds not checked
write_data production.R1
PPPM initialization ...
  extracting TIP4P info from pair style
WARNING: Using 12-bit tables for long-range coulomb (../kspace.cpp:316)
  G vector (1/distance) = 0.345956
  grid = 400 48 48
  stencil order = 5
  estimated absolute RMS force accuracy = 0.00040073
  estimated relative force accuracy = 1.20679e-06
  using double precision FFTs
  3d grid and FFT values/proc = 67260 38400
write_restart restartproduction.R1
PPPM initialization ...
  extracting TIP4P info from pair style
WARNING: Using 12-bit tables for long-range coulomb (../kspace.cpp:316)
  G vector (1/distance) = 0.345956
  grid = 400 48 48
  stencil order = 5
  estimated absolute RMS force accuracy = 0.00040073
  estimated relative force accuracy = 1.20679e-06
  using double precision FFTs
  3d grid and FFT values/proc = 67260 38400
Total wall time: 14:10:24
