LAMMPS (30 Jul 2016)
# Sets up LAMMPS simulation for transient melting of ice: TIP4P/Ice
# Ensure cold thermostats do not move
# Thinbox: 16x1x1
# Defects
# Order param l=2

#### setting MD parameters ####
units real
boundary p p p
atom_style full

# read ice box in restart file
### read the equilibrated NPT restart file

read_restart restart.state
  orthogonal box = (0.295909 0.0159676 0.0150538) to (435.779 23.5152 22.1694)
  32 by 1 by 1 MPI processor grid
  20736 atoms
  13824 bonds
  6912 angles
  2 = max # of 1-2 neighbors
  1 = max # of 1-3 neighbors
  1 = max # of 1-4 neighbors
  2 = max # of special neighbors


#### force field definition ####
pair_style      lj/cut/tip4p/long 2 1 1 1 0.1577 10.0
pair_modify	tail yes

kspace_style	pppm/tip4p 1.0e-6

bond_style	harmonic
angle_style	harmonic
dihedral_style	none
improper_style	none

bond_coeff	1 450.0 0.9572
angle_coeff	1 55.0 104.52


# reset pair coeff
pair_coeff	* * 0.0 0.0

#OO
pair_coeff	2 2 0.21085 3.1668
#OH
pair_coeff	* 1 0.0000 0.0000

neighbor        2.0 bin
neigh_modify    every 1 delay 1 check no

timestep	2.0
fix		constraints all shake 0.000001 20 0 b 1 a 1
  0 = # of size 2 clusters
  0 = # of size 3 clusters
  0 = # of size 4 clusters
  6912 = # of frozen angles

group water type 1 2
20736 atoms in group water

#*********** SIMULATION PARAMETER TO ADJUST ****************
#Box dimensions
variable lx equal lx
variable ly equal ly
variable lz equal lz

### Temperature of the hot and cold regions ####
variable thi equal 375
variable tlo equal 215
variable runpressure equal 0.986923


# Configuration equilibrated in density and temperature

# Define dx here

variable lx equal lx
variable ly equal ly
variable lz equal lz

variable xlo equal xlo
variable xhi equal xhi

variable boxcentre equal ${xlo}+(${xhi}-${xlo})/2
variable boxcentre equal 0.295908552006656+(${xhi}-${xlo})/2
variable boxcentre equal 0.295908552006656+(435.779291448002-${xlo})/2
variable boxcentre equal 0.295908552006656+(435.779291448002-0.295908552006656)/2

variable dx equal 2.0

#### ADD IN DEFECTS AT THE CENTRE OF THE HOT THERMOSTAT #####
variable y1 equal ${ly}/2.0
variable y1 equal 23.4992647589271/2.0
variable z1 equal ${lz}/2.0
variable z1 equal 22.1543924255634/2.0

region kill1 sphere ${boxcentre} ${y1} ${z1} 3
region kill1 sphere 218.037600000004 ${y1} ${z1} 3
region kill1 sphere 218.037600000004 11.7496323794636 ${z1} 3
region kill1 sphere 218.037600000004 11.7496323794636 11.0771962127817 3
delete_atoms region kill1 compress no bond yes mol yes
Deleted 12 atoms, new total = 20724
Deleted 8 bonds, new total = 13816
Deleted 4 angles, new total = 6908
############


variable thip equal ${thi}*2.0/3.0
variable thip equal 375*2.0/3.0
variable tlop equal ${tlo}*2.0/3.0
variable tlop equal 215*2.0/3.0
variable hbl equal ${boxcentre}-${dx}
variable hbl equal 218.037600000004-${dx}
variable hbl equal 218.037600000004-2
variable hbh equal ${boxcentre}+${dx}
variable hbh equal 218.037600000004+${dx}
variable hbh equal 218.037600000004+2

#***************************************************
## EQUILIBRATION PERIOD - to reach the steady state ###
#run 0

#reset the timestep to start your production run
reset_timestep 0

# define a group to perform averages
#group s1 type 1
###*** SYSTEM THERMOSTATTING: HOT and COLD regions ***###

fix NVE all nve
fix PRESS all press/berendsen aniso ${runpressure} ${runpressure} 500000 couple yz
fix PRESS all press/berendsen aniso 0.986923 ${runpressure} 500000 couple yz
fix PRESS all press/berendsen aniso 0.986923 0.986923 500000 couple yz


### Apply THERMOSTATS ###

#set up the "hot region" in the middle of the box
region hot block ${hbl} ${hbh} 0 ${ly} 0 ${lz} units box
region hot block 216.037600000004 ${hbh} 0 ${ly} 0 ${lz} units box
region hot block 216.037600000004 220.037600000004 0 ${ly} 0 ${lz} units box
region hot block 216.037600000004 220.037600000004 0 23.4992647589271 0 ${lz} units box
region hot block 216.037600000004 220.037600000004 0 23.4992647589271 0 22.1543924255634 units box


#set up the "cold region" at the left end of the box
#region cold block ${cbl} ${cbh} 0 ${ly} 0 ${lz} units box

#set up the "cold region" at the right end of the box
#region cold2 block ${h2bl} ${xhi} 0 ${ly} 0 ${lz} units box


#Cold regions  unification
#region cold union 2 cold1 cold2 units box

#Create group of cold molecules
####group cool_ice region cold
####group cool_ice include molecule

####compute cold_temp cool_ice temp
####fix cold_rescale water temp/rescale 1 ${tlo} ${tlo} 0.0001 1.0
####fix_modify cold_rescale temp cold_temp

#this calculates the temperature using only the atoms in the "hot region"
#compute hot_temp all temp/region hot

# calculate the temperature using only WATER in the "hot region"
compute hot_temp water temp/region hot

#this calculates the temperature using only WATER in the "cold region"
#compute cold_temp water temp/region cold


#set up a basic velocity rescale for the hot region WATER with thip
fix hot_rescale water temp/rescale 1 ${thip} ${thip} 1.0 1.0
fix hot_rescale water temp/rescale 1 250 ${thip} 1.0 1.0
fix hot_rescale water temp/rescale 1 250 250 1.0 1.0
#change the thermostat to only act on the "hot region"
#this is done by passing it the "hot temp" compute that we defined above
fix_modify hot_rescale temp hot_temp

#set up a basic velocity rescale for the cold region
#fix cold_rescale water temp/rescale 1 ${tlop} ${tlop} 1.0 1.0
#change the thermostat to only act on the "cold region"
#this is done by passing it the "cold temp" compute that we defined above
#fix_modify cold_rescale temp cold_temp

### Ensure MOMENTUM CONSERVATION ###

#ensure that linear momentum is conserved despite the "thermostatting" by velocity rescaling
fix cons_mom all momentum 1 linear 1 1 1


thermo 100
thermo_style custom step pe etotal temp atoms vol press pxx pyy pzz lx ly lz xlo xhi  f_hot_rescale

group ox type 2
6908 atoms in group ox
group hy type 1
13816 atoms in group hy
compute KE all ke/atom
variable TEMP atom c_KE*4186.8/(1.3806488*6.02214129)

compute cc1 all chunk/atom bin/1d x center 2 units box
#fix TPROFILE all ave/chunk 1 500 500 cc1 v_TEMP density/number file temp.dat
fix TPROFILEox ox ave/chunk 1 500 500 cc1 v_TEMP density/number file temp-ox.dat
fix TPROFILEhy hy ave/chunk 1 500 500 cc1 v_TEMP density/number file temp-hy.dat

compute orderparam ox orientorder/atom degrees 1 2 nnn 4 cutoff 3.5
compute cc2 ox chunk/atom bin/1d x center 2 units box
#fix ORDERPARAM all ave/chunk 1 500 500 cc2 c_orderparam[1] file order-param.dat
fix ORDERPARAM all ave/chunk 1 500 500 cc2 c_orderparam[1] file order-param.dat

restart 50000 config.restart

run 500000
PPPM initialization ...
  extracting TIP4P info from pair style
WARNING: Using 12-bit tables for long-range coulomb (../kspace.cpp:316)
  G vector (1/distance) = 0.345563
  grid = 405 48 48
  stencil order = 5
  estimated absolute RMS force accuracy = 0.000406692
  estimated relative force accuracy = 1.22474e-06
  using double precision FFTs
  3d grid and FFT values/proc = 67260 38880
Neighbor list info ...
  2 neighbor list requests
  update every 1 steps, delay 1 steps, check no
  max neighbors/atom: 2000, page size: 100000
  master list distance cutoff = 12.3154
  ghost atom cutoff = 12.3154
  binsize = 6.1577 -> bins = 71 4 4
Memory usage per processor = 12.7691 Mbytes
Step PotEng TotEng Temp Atoms Volume Press Pxx Pyy Pzz Lx Ly Lz Xlo Xhi hot_resc 
       0   -103825.53   -95073.548    212.53059    20724    226717.85   -238.36391   -557.85218   -210.90723    53.667665    435.48338    23.499265    22.154392   0.29590855    435.77929            0 
     100   -103671.62   -94819.959    214.95103    20724    226433.69   -26.182845   -143.63601   -31.748262    96.835735    435.37515    23.487452    22.143256   0.35002426    435.72518   -259.36077 
     200   -103631.76   -94765.356     215.3091    20724    226458.66    22.592725    51.438215     156.6664   -140.32644    435.22227    23.492873    22.148366   0.42646642    435.64873   -316.46374 
     300   -103679.86   -94729.386     217.3506    20724    226330.07    62.954845   -57.071137   -95.768895    341.70457    435.26871    23.484949    22.140896   0.40324578    435.67195   -358.74193 
     400    -103625.2   -94645.295    218.06536    20724    226407.21   -28.651371   -178.92438   -135.70296    228.67322    435.03479    23.495265    22.150621   0.52020305      435.555   -437.41101 
     500   -103590.49   -94592.803    218.49722    20724    226436.81   -19.496877   -45.470068   -62.606722    49.586159     435.2828    23.490106    22.145758   0.39619953      435.679   -489.77579 
     600   -103568.35    -94573.18    218.43593    20724     226446.3    70.300712    -286.6051    99.268014    398.23922    435.21173    23.492516     22.14803   0.43173474    435.64347    -515.2471 
     700   -103449.14   -94507.274    217.14167    20724    226400.31    97.846228     159.5577   -39.295073    173.27606    435.07774    23.493747     22.14919   0.49872876    435.57647   -583.07941 
     800   -103541.41   -94485.815    219.90329    20724    226571.39   -7.0861735    85.942031    87.537848    -194.7384     435.4013    23.493888    22.149323   0.33694776    435.73825   -596.72575 
     900    -103519.1   -94449.955    220.23227    20724    226515.22   -48.800087   -141.26115   -169.12479    163.98568    435.28622    23.494081    22.149505   0.39448846    435.68071   -631.26668 
    1000   -103502.85   -94400.354    221.04217    20724    226565.83   -4.1586571   -29.265706   -185.89549    202.68522    435.41407    23.493255    22.148726   0.33056572    435.74463   -683.46807 
    1100   -103544.13   -94386.296    222.38619    20724    226493.53   -27.722165    18.503191   -47.085844   -54.583842    435.46874    23.488032    22.143802   0.30322976    435.77197   -700.17168 
    1200      -103456   -94350.817    221.10747    20724    226702.54   -2.9928448     -147.993    -34.04969    173.06416    435.42509    23.500044    22.155127   0.32505549    435.75014   -731.05213 
    1300    -103457.5   -94320.573     221.8784    20724    226417.86   -24.848484    14.239436   -167.88861    79.103721    435.30358    23.488562    22.144303    0.3858108    435.68939   -769.64261 
    1400   -103401.88   -94307.551      220.844    20724    226362.48   -15.617985    34.831128    129.93323   -211.61832    435.24595    23.487244     22.14306   0.41462659    435.66057    -784.1123 
    1500   -103351.09   -94268.023    220.57037    20724    226585.71   -35.613835   -129.21564    129.64539   -107.27126    435.32237     23.49676    22.152031   0.37641336    435.69879   -816.58313 
    1600   -103383.36   -94245.715    221.89592    20724    226572.08   -13.954781   -117.59755     31.94301      43.7902    435.33313    23.495763    22.151091   0.37103649    435.70416   -842.43382 
    1700   -103360.99   -94226.044    221.83037    20724    226579.43   -33.235239   -59.586579   -216.79117    176.67204    435.53652    23.490657    22.146278   0.26934117    435.80586   -862.28793 
    1800   -103384.39   -94182.682    223.45162    20724    226546.58   -48.259215    111.93299   -146.73582   -109.97481    435.41026    23.492359    22.147882   0.33246787    435.74273   -906.03884 
    1900   -103369.18   -94191.602    222.86562    20724    226437.98   -29.922579    -274.2896   -164.67098    349.19284    435.19878    23.492434    22.147953   0.43821198    435.63699   -902.31212 
    2000   -103382.37   -94194.446    223.11686    20724    226635.72    2.3079472    90.669329   -49.282312   -34.463176      435.521    23.493993    22.149423   0.27710151     435.7981   -897.53716 
    2100   -103255.82   -94160.062    220.87872    20724    226412.48    5.3901041    3.2797019    332.96505   -320.07444    435.21113    23.490778    22.146391    0.4320329    435.64317   -939.10812 
    2200   -103428.93   -94135.995    225.66691    20724    226645.74   -20.459995    206.25186   -50.385796   -217.24605    435.46573    23.496004    22.151318   0.30473464    435.77047   -959.85643 
    2300   -103300.38   -94087.098     223.7326    20724    226403.12   -67.224966    -167.7314   -157.85579     123.9123    434.96832    23.496848    22.152114   0.55343924    435.52176   -1013.6257 
    2400   -103304.76   -94042.905    224.91207    20724     226331.1    14.942996   -25.129871   -139.12592    209.08478    435.12294    23.488936    22.144655   0.47613243    435.59907   -1065.8795 
    2500   -103363.47   -94072.545    225.61795    20724    226530.83   -9.1946363    31.518101   -210.17708    151.07507    435.26693    23.495411    22.150759   0.40413388    435.67107   -1029.1319 
    2600   -103192.86   -94006.328    223.08297    20724    226227.34    64.185193   0.43100541    152.89493    39.229647     435.1261    23.483466    22.139498   0.47455128    435.60065   -1107.2396 
    2700   -103218.55   -94007.636    223.67507    20724    226506.59   -2.4590879   -93.294537    175.58487   -89.667597    435.28109    23.493772    22.149214   0.39705716    435.67814   -1096.2636 
    2800   -103266.98   -94024.704    224.43669    20724    226409.33   -38.319471   -5.3261529    -113.3568    3.7245458    435.29119    23.488454      22.1442   0.39200596    435.68319   -1081.0099 
    2900   -103155.99   -93953.605    223.46785    20724    226719.61    30.907128    159.79839    47.358232   -114.43524    435.55681    23.497375    22.152611   0.25919409    435.81601   -1147.5055 
    3000   -103206.32   -93962.761     224.4679    20724    226628.82    18.843537     32.23972    11.267409    13.023481    435.39288    23.497092    22.152344   0.34115843    435.73404   -1142.5318 
    3100   -103184.99   -93981.783    223.48798    20724    226541.78    135.01976    213.96025    93.894974    97.204063    435.35025     23.49373    22.149174   0.36247659    435.71272   -1133.5644 
    3200   -103276.26   -93974.059    225.89189    20724    226671.96   -49.944068   -132.73637    61.415301   -78.511132    435.52465    23.495773    22.151101   0.27527511    435.79992   -1127.5741 
    3300   -103185.51   -93907.961    225.29322    20724    226704.63    46.450053    195.93852   -42.889086   -13.699275    435.54667    23.496873    22.152137   0.26426632    435.81093   -1199.6938 
    3400   -103276.38    -93883.94    228.08313    20724    226565.28    -68.39237   -135.00152   -100.73625    30.560665    435.50041    23.490897    22.146504   0.28739296    435.78781   -1222.4957 
    3500    -103142.8   -93883.868    224.84107    20724     226664.4   -25.774435    -213.1827    39.098206    96.761187    435.39448    23.498893    22.154042    0.3403583    435.73484   -1222.0846 
    3600   -103135.71   -93892.521    224.45891    20724    226549.43    52.102827    93.539064     137.4104   -74.640978    435.33824    23.494451    22.149854   0.36848121    435.70672   -1220.0463 
    3700   -103129.87   -93859.916    225.10869    20724     226560.8    59.122308    139.43335    216.61965   -178.68607    435.32014    23.495528     22.15087   0.37752845    435.69767     -1253.37 
    3800   -103119.31   -93802.282    226.25197    20724    226610.74   -10.266676    213.98269   -145.74198   -99.040735    435.33754    23.497649    22.152869   0.36883172    435.70637   -1308.3249 
    3900   -103247.19   -93845.951    228.29691    20724    226877.21   -66.072229   -104.68589    76.491614   -170.02241    435.62912     23.50359     22.15847   0.22304112    435.85216   -1255.5342 
    4000   -103139.48   -93796.338    226.88604    20724    226436.01   -71.133173   -49.324678   -323.59359    159.51875    435.42245    23.486297    22.142167   0.32637495    435.74883   -1317.9963 
    4100   -103163.12   -93763.201    228.26479    20724    226770.41   -89.659503   -63.990744   -249.83404    44.846278    435.66252    23.497156    22.152405    0.2063418    435.86886   -1341.2702 
    4200   -103117.64   -93759.478    227.25068    20724    226697.34    68.962208   -68.088839   -177.23656    452.21202     435.4535    23.499008    22.154151   0.31085142    435.76435   -1356.4124 
    4300    -103135.1   -93714.496    228.76714    20724    226766.38   -134.52443   -152.47066   -321.17815    70.075537    435.52332    23.500703    22.155748   0.27594121    435.79926    -1391.639 
    4400   -103082.65    -93732.63    227.05314    20724    226689.51    19.780603   -68.933295    254.14701   -125.87191    435.43672    23.499055    22.154195   0.31923956    435.75596   -1382.0149 
    4500   -103089.12     -93672.2    228.67758    20724    226756.24     -77.5092    34.097305   -136.26057   -130.36433    435.40856    23.503274    22.158172   0.33331852    435.74188   -1437.9921 
    4600   -102998.31   -93657.551    226.82818    20724    226783.95    21.548341    139.94793   -130.82057    55.517671    435.36414    23.505909    22.160656   0.35552805    435.71967   -1456.2339 
    4700    -103166.2   -93664.109    230.74591    20724    226686.39   -23.577975   -169.18958   -209.53514     307.9908    435.47873     23.49776    22.152974   0.29823667    435.77696   -1454.5966 
    4800   -102979.55   -93619.861    227.28796    20724    226766.48    24.431517     53.08175   -268.93292    289.14572    435.48034    23.501868    22.156846   0.29743199    435.77777   -1496.8362 
    4900   -103049.54   -93627.256    228.80792    20724    226809.27    35.119552    196.75912   -66.142412   -25.258049    435.44038    23.505163    22.159953   0.31740867    435.75779   -1491.4933 
    5000   -103021.14   -93607.947    228.58706    20724    226751.11    14.399219   -44.684977    39.872179    48.010455    435.59101    23.498085     22.15328   0.24209562     435.8331   -1512.2648 
    5100   -102967.43   -93605.302    227.34701    20724    226740.43    94.257222    144.20938    199.54606   -60.983772    435.58292     23.49775    22.152964   0.24613797    435.82906   -1518.4535 
    5200   -102899.85   -93584.345    226.21489    20724     226668.6     27.12125    73.814329    128.82882    -121.2794    435.53196    23.495402    22.150751   0.27162089    435.80358     -1538.16 
    5300   -102908.29   -93558.337    227.05138    20724    226645.96    52.402648    -46.54563    187.18323    16.570349    435.54404    23.493903    22.149338   0.26558102    435.80962   -1567.9826 
    5400   -102984.52   -93579.998    228.37667    20724    226793.18    0.8502594    67.233452    29.867224   -94.549898    435.51818     23.50223    22.157188   0.27851155    435.79669   -1541.0725 
    5500   -102960.56   -93553.082    228.44843    20724    226697.25    41.891006    11.728428   -103.79911     217.7437    435.43599    23.499476    22.154591   0.31960376     435.7556   -1572.1338 
    5600   -102941.64   -93477.475    229.82487    20724    226762.98    30.122685    89.598446   -80.185104    80.954712    435.34473    23.505346    22.160126   0.36523446    435.70997   -1648.2486 
    5700   -102998.15   -93502.041    230.60074    20724    226734.92   -11.781353    57.694114    62.763279   -155.80145    435.53027    23.498885    22.154034   0.27246605    435.80273   -1623.7205 
    5800   -102916.31   -93462.473    229.57407    20724    226741.77   -62.108081   -85.055213   -139.97879    38.709761    435.68289    23.495123    22.150488    0.1961561    435.87904   -1660.6724 
    5900   -102909.26   -93489.181    228.75441    20724       226731    9.9108583    33.061291    134.50904   -137.83776    435.43981    23.501122    22.156143   0.31769456    435.75751   -1639.2129 
    6000   -102904.18   -93469.618      229.106    20724    226717.35    11.646891    46.926699    76.875877   -88.861902     435.3947    23.501632    22.156624    0.3402503    435.73495   -1660.7531 
    6100   -102902.54   -93503.927    228.23316    20724    226816.54    13.609733   -54.793783    57.516151     38.10683    435.45831    23.505055    22.159852    0.3084436    435.76676   -1623.4526 
    6200   -102889.96   -93462.269     228.9391    20724    226749.62   -65.932276   -141.72096    -204.7432    148.66732    435.54885    23.499145    22.154279    0.2631764    435.81202   -1665.3647 
    6300   -102874.79   -93461.039    228.60061    20724    226531.86    21.924776   -130.23568   -2.2220874     198.2321    435.29971    23.494579    22.149975   0.38774394    435.68746   -1677.4413 
    6400   -102901.86   -93433.776    229.92013    20724    226738.83   -20.583955   -184.80806    32.778208    90.277985    435.40676     23.50242    22.157367   0.33422176    435.74098   -1698.1296 
    6500   -102858.11   -93430.919    228.92705    20724       226680    14.649955     79.04736   -49.933476    14.835982    435.44797    23.498259    22.153444   0.31361666    435.76158   -1705.6445 
    6600   -102886.54   -93405.615    230.23188    20724    226755.07   -76.989096    74.127606   -37.681716   -267.41318    435.48748    23.501083    22.156107      0.29386    435.78134    -1724.701 
    6700   -102843.28   -93357.319    230.35418    20724    226701.91   -9.5313397    79.024756   -76.606693   -31.012082      435.512    23.497667    22.152886   0.28159864     435.7936    -1781.383 
    6800   -102901.45   -93356.211    231.79381    20724    226831.46    2.6090561    83.902092    85.741467   -161.81639    435.59326    23.502187    22.157148   0.24097014    435.83423   -1779.1477 
    6900   -102886.13    -93342.88    231.74539    20724    226675.58    13.758758    30.137463   -167.87505    179.01386    435.36329    23.500315    22.155382   0.35595718    435.71924   -1798.0003 
    7000   -102907.83   -93322.036    232.77842    20724    226689.39    42.338293   -28.979759    104.92437     51.07027    435.40715    23.499847    22.154942   0.33402661    435.74117    -1820.574 
    7100   -102871.61   -93310.227    232.18581    20724    226740.25   -33.750718    39.078009    35.258517   -175.58868    435.59422    23.497435    22.152668   0.24048779    435.83471   -1829.1024 
    7200   -102759.11   -93287.065    230.01616    20724    226732.14    38.873343     80.49745   -33.599788    69.722368    435.38759    23.502591    22.157528   0.34380738    435.73139   -1855.3667 
    7300   -102838.91   -93322.667    231.08967    20724       226736   -2.5729943   -21.903174    153.13149    -138.9473    435.23571    23.506891    22.161582   0.41974346    435.65546   -1817.8128 
    7400   -102776.74    -93261.84     231.0569    20724    226634.48   -53.629983   -292.51861    -41.32563     172.9543    435.14676     23.50403    22.158885   0.46422104    435.61098   -1880.3355 
    7500   -102751.09   -93248.889    230.74861    20724    226697.18    5.7512894   -175.53141   -199.97576    392.76104    435.23213    23.504975    22.159776   0.42153327    435.65367    -1895.186 
    7600   -102746.81    -93253.51    230.53247    20724    226645.29    -63.14933   -28.179799   -441.03433    279.76614    435.38214    23.498236    22.153422   0.34652845    435.72867   -1890.1765 
    7700   -102836.92   -93235.054    233.16877    20724    226736.42   -14.274466   -261.41511    44.675024    173.91669    435.37061    23.503271    22.158169    0.3522969     435.7229   -1910.0595 
    7800      -102741   -93192.818    231.86527    20724    226490.67    64.886248    225.24119    21.170252   -51.752697     435.1698     23.49595    22.151267   0.45269896     435.6225   -1963.2121 
    7900   -102823.29   -93188.587    233.96621    20724    226617.24   -36.024105    79.823546   -62.325151   -125.57071    435.17812    23.502289    22.157244   0.44854217    435.62666    -1960.365 
    8000   -102657.25   -93141.426    231.07941    20724    226729.66     9.895089   -72.279593    166.13591   -64.171054    435.22207    23.506931     22.16162   0.42656596    435.64863   -2006.3015 
    8100   -102704.44   -93122.252    232.69094    20724    226644.28   -69.526294   -11.006093   -235.05464    37.481847    435.21091    23.502806    22.157731   0.43214392    435.64306   -2026.2655 
    8200   -102749.81   -93145.215    233.23517    20724    226732.81   -35.995289   -5.5436057   -26.626932   -75.815328    435.38753    23.502627    22.157562   0.34383526    435.73136   -2003.8712 
    8300   -102696.46   -93131.427    232.27446    20724    226653.96   -74.936535   -206.11775  -0.16367374   -18.528176    435.21638     23.50316    22.158065   0.42941009    435.64579   -2018.5733 
    8400   -102764.65   -93123.207    234.12987    20724    226584.88     30.43043    124.10702   -91.608485    58.792752      435.137    23.501722    22.156709   0.46910148     435.6061   -2034.9492 
    8500   -102733.43   -93135.542    233.07215    20724    226704.95    -101.2976   -77.924339   -63.410297   -162.55816    435.34298    23.502385    22.157334   0.36610996    435.70909   -2013.9343 
    8600   -102678.41   -93109.079    232.37873    20724    226824.82    68.849232    127.20293    71.343976    8.0007872    435.56829    23.502517    22.157458   0.25345485    435.82175   -2045.6498 
    8700   -102719.31   -93155.801    232.23727    20724    226757.78   -7.9108016   -74.312118   -46.414387    96.994101    435.24419    23.507791    22.162431   0.41550669    435.65969   -1999.4742 
    8800   -102638.65   -93096.481    231.71916    20724    226702.94   -4.5846788    47.756469    21.454208   -82.964714    435.27551    23.504103    22.158954   0.39984277    435.67536   -2061.1742 
    8900   -102769.33    -93149.41    233.60733    20724    226716.65   -5.0696383    56.586207    31.750788   -103.54591    435.29333    23.504333     22.15917   0.39093707    435.68426   -2009.2186 
    9000   -102676.01   -93097.794    232.59458    20724    226586.09    18.753461     66.09961    159.94302   -169.78225    435.30882    23.497146    22.152395   0.38318965    435.69201   -2066.2841 
    9100   -102660.35   -93080.413     232.6364    20724    226725.35     91.40814    304.25559    35.177923   -65.209097    435.41166    23.501589    22.156584   0.33177149    435.74343   -2084.5616 
    9200   -102614.37   -93049.183    232.27814    20724     226863.5    52.113953   -129.58375   -44.700309    330.62591    435.47224    23.507113    22.161791   0.30147898    435.77372   -2110.9892 
    9300    -102600.8    -93049.39    231.94351    20724    226772.02   -33.393823   -57.514961   -139.50348     96.83697    435.40605    23.504159    22.159006   0.33457321    435.74063   -2108.7394 
    9400   -102682.46   -93031.867    234.35207    20724    226886.03    67.920528    171.46767   -127.02295    159.31686    435.35997    23.511311    22.165749   0.35761651    435.71758   -2129.7061 
    9500   -102595.59   -93046.574    231.88538    20724    226748.26   -30.040307   -428.04034    78.144052    259.77537    435.32516    23.505111    22.159904   0.37502246    435.70018    -2116.409 
    9600   -102639.74   -93019.124    233.62419    20724    226977.92    85.630088    185.72162    248.63046   -177.46181    435.47229    23.513038    22.167378   0.30145363    435.77375   -2145.1146 
    9700   -102626.41   -93009.212    233.54104    20724    226706.88   -5.0008436   -14.444105    102.43384   -102.99227    435.47575    23.498902    22.154051   0.29972681    435.77547   -2158.2844 
    9800   -102549.04   -93003.631    231.79777    20724    226812.82    88.040256    26.017048    135.27195    102.83177    435.61796    23.500556    22.155609   0.22862233    435.84658   -2164.7657 
    9900   -102599.71   -92980.578     233.5882    20724    226773.69    18.793469    5.2375096   -161.79884    212.94174    435.33104    23.506271    22.160998   0.37208244    435.70312   -2189.6237 
   10000   -102768.22   -92923.321    239.07044    20724    226820.87   -28.451143    75.219284   -94.057791   -66.514922    435.60085    23.501434    22.156437   0.23717382    435.83803   -2247.6027 
   10100   -102545.64   -92937.106    233.33077    20724    226671.99    1.8334429   -97.940397    315.17583    -211.7351    435.28554    23.502227    22.157186   0.39482807    435.68037   -2236.5156 
   10200      -102623   -92941.755    235.09635    20724    226844.67    45.221478    194.39472   -206.79993    148.06964    435.48664    23.505749    22.160505    0.2942814    435.78092   -2230.6572 
   10300   -102596.04   -92947.321    234.30665    20724    226851.26   -11.524761    169.95613   -263.13151    58.601101    435.60971    23.502769    22.157696   0.23274594    435.84245   -2223.8952 
   10400   -102611.38   -92944.151    234.75615    20724    226782.12    65.450001    119.33107    17.201316    59.817614    435.32625    23.506837    22.161531   0.37447659    435.70072   -2232.7161 
   10500   -102615.61     -92931.1    235.17573    20724    226747.61    26.360294    62.315467   -129.38627    146.15168    435.46618    23.501271    22.156284   0.30450852    435.77069   -2246.8108 
   10600   -102564.53   -92937.799    233.77269    20724    226801.21    12.320626     262.3752    62.970406   -288.38373    435.42542    23.505149     22.15994   0.32489203    435.75031   -2238.3682 
   10700   -102635.31   -92897.591    236.46774    20724    226885.15     -19.4946   -6.6152692    239.91065   -291.77918    435.66013    23.503165    22.158069   0.20753287    435.86767   -2276.7866 
   10800   -102537.86   -92896.804    234.12045    20724    226886.66    107.98862     49.13339   -73.771755    348.60421    435.42655    23.509546    22.164085   0.32432383    435.75088   -2283.4013 
   10900   -102612.41   -92911.654    235.57019    20724    226726.05   -12.789191    55.579559    -246.6042    152.65707    435.56725    23.497428    22.152661   0.25397716    435.82122   -2268.2891 
   11000   -102619.19   -92911.186    235.74612    20724    226746.06   -22.281072   -223.65532    64.393663    92.418439    435.27529    23.506344    22.161066   0.39995296    435.67525   -2269.7582 
   11100    -102626.2   -92946.844    235.05068    20724    226711.11   -23.232571    105.67412    7.4312545   -182.80309    435.22496    23.505891     22.16064   0.42511753    435.65008   -2235.6117 
   11200   -102569.02   -92883.399    235.20273    20724    226837.27    75.316995    90.269895    287.49567   -151.81457    435.20241    23.513039    22.167379   0.43639427    435.63881   -2301.3342 
   11300   -102557.69   -92921.756    233.99604    20724    226900.62    47.768156    39.041141    49.508864    54.754462    435.23338    23.515486    22.169685   0.42091235    435.65429   -2260.5457 
   11400   -102533.23   -92906.321    233.77688    20724    226884.25     4.411525   -124.73372   -15.419555    153.38785    435.42194    23.509546    22.164085   0.32663196    435.74857   -2275.2616 
   11500   -102489.37   -92857.751    233.89132    20724    226851.36    81.377794    96.968798    47.760254     99.40433    435.44499    23.507219    22.161892   0.31510416     435.7601   -2328.7913 
   11600   -102460.22   -92809.367    234.35848    20724    226819.97   -31.318517   -261.81977   -64.469529    232.33375    435.40348    23.506713    22.161415   0.33585975    435.73934    -2370.175 
   11700    -102518.5   -92783.568    236.40026    20724    226795.55    3.4549507    170.03843     -78.2638   -81.409776    435.46041    23.503911    22.158773    0.3073944    435.76781   -2401.5762 
   11800   -102436.62   -92752.721    235.16076    20724    226872.59    53.529167     85.47136     311.9957   -236.87956    435.60857    23.503905    22.158767   0.23331342    435.84189   -2434.1347 
   11900   -102522.44   -92805.412    235.96525    20724     226710.9   -108.85555   -210.85016    115.34832   -231.06482    435.24033    23.505465    22.160238   0.41743728    435.65776   -2376.3951 
   12000   -102439.16   -92768.225    234.84615    20724    226706.04    29.609056    -33.06185   -163.24495    285.13397    435.13165    23.508148    22.162767   0.47177422    435.60343   -2422.7783 
   12100   -102502.34    -92784.99    235.97323    20724    226814.33   -13.573357    21.233888   -71.786698      9.83274    435.33798     23.50819    22.162807   0.36861153    435.70659   -2402.6763 
   12200   -102581.23   -92744.634    238.86894    20724    226782.86   -57.169908    49.315103   -104.64341   -116.18142    435.39218    23.505095    22.159889   0.34150772    435.73369   -2443.5951 
   12300   -102413.13   -92712.121    235.57642    20724    226743.22    69.165398    66.979269    359.80262   -219.28569    435.21301    23.507878    22.162513   0.43109421    435.64411   -2482.7039 
   12400   -102399.59   -92674.683    236.15675    20724    226817.34    115.64322    232.27129    11.802622    102.85574    435.19211    23.512285    22.166667   0.44154611    435.63365   -2520.3096 
   12500    -102408.6   -92694.687    235.88981    20724    226777.26    14.298655    22.816557   -76.243013    96.322421    435.18117    23.510503    22.164987   0.44701448    435.62819   -2496.4838 
   12600   -102366.05   -92637.302       236.25    20724    226772.66    14.551336    29.029766    89.976688   -75.352446    435.34016    23.505971    22.160715   0.36752124    435.70768   -2556.7754 
   12700   -102488.36   -92643.862    239.06092    20724    226721.56   -26.649756   -195.82162    73.423934    42.448418    435.11917    23.509291    22.163844    0.4780166    435.59718   -2551.4408 
   12800   -102363.96   -92614.406    236.75514    20724    226781.63   -80.953596   -215.87165    -94.91626    67.927125    435.23566    23.509258    22.163813   0.41976757    435.65543    -2577.995 
   12900   -102372.59   -92585.139    237.67541    20724     226881.2   -21.657001   -43.487205     128.3533    -149.8371    435.03857    23.519744    22.173699   0.51831392    435.55689   -2607.7866 
   13000   -102361.43   -92621.921    236.51136    20724    226842.15    53.256392   -8.2485757     183.2807   -15.262945    434.93465    23.520529     22.17444   0.57027305    435.50493    -2576.827 
   13100   -102359.31   -92647.239    235.84508    20724    226778.91    63.556097    74.258382    319.27705   -202.86714    435.18464    23.510495     22.16498   0.44528012    435.62992   -2553.5573 
   13200   -102370.77   -92654.098    235.95681    20724    226712.98    92.442471   -1.0184803    78.246229    200.09966    435.29957    23.503973    22.158832   0.38781559    435.68738   -2551.9083 
   13300   -102308.23   -92632.174     234.9703    20724    226506.28    45.692207      56.2928   -65.007502    145.79132    435.14985    23.497298    22.152538   0.46267323    435.61253   -2577.3189 
   13400   -102291.91   -92563.469    236.24241    20724    226652.95    36.368227    -56.53644   -89.036334    254.67746    435.07195    23.507008    22.161692   0.50162279    435.57358   -2641.8932 
   13500   -102304.49   -92591.862    235.85848    20724    226627.55    14.812926   -43.785929    -11.61401    99.838716    435.05021    23.506278    22.161004   0.51249336    435.56271    -2613.483 
   13600   -102252.67   -92545.223    235.73262    20724    226870.02    53.631698    40.092398    81.055217    39.747479    435.32243    23.511495    22.165923   0.37638589    435.69881   -2657.8623 
   13700   -102299.59   -92553.082    236.68129    20724    226797.84    6.9755754   -138.17626    423.48776   -264.38478     435.1381    23.512733     22.16709   0.46855218    435.60665    -2651.542 
   13800   -102316.92    -92526.88    237.73834    20724    226663.91   -51.024284   -171.07124   -157.04418    175.04257    435.00304    23.509439    22.163984   0.53608174    435.53912   -2678.4108 
   13900   -102355.23   -92563.906    237.76961    20724    226699.99    39.893127    79.059193    214.75226   -174.13207    435.13974    23.507616    22.162266   0.46772913    435.60747   -2647.4645 
   14000   -102168.47   -92517.166    234.36928    20724    226579.85   -38.316253   -136.86872   -14.118934    36.038899    434.90527    23.507721    22.162364    0.5849626    435.49024   -2692.3065 
   14100   -102242.52   -92510.252    236.33552    20724    226570.27    139.36455    208.65889    270.60819   -61.173421    434.74137    23.511654    22.166073   0.66691724    435.40828   -2710.0372 
   14200   -102233.89   -92515.269    236.00394    20724    226560.61     15.12499   -177.60675   -122.69119    345.67291    435.06925    23.502292    22.157246     0.502973    435.57223   -2701.2931 
   14300    -102197.9   -92465.419    236.34063    20724    226522.34    31.891025   -16.509874    -181.5698    293.75275    435.05911    23.500581    22.155633   0.50804357    435.56716   -2752.6557 
   14400   -102143.31   -92426.878    235.95088    20724    226683.16   -35.244669   -22.720825    52.297429   -135.31061    435.27591    23.503066    22.157976   0.39964413    435.67556   -2783.6837 
   14500   -102238.11   -92453.224    237.61325    20724    226525.32   -40.010537   -206.24022    149.15912   -62.950505    435.16671     23.49783     22.15304   0.45424513    435.62095   -2765.7473 
   14600   -102337.57   -92429.365    240.60782    20724    226573.07   -113.31187   -237.88847    -166.0039    63.956754    435.14256    23.500959     22.15599   0.46631805    435.60888   -2785.0745 
   14700   -102236.87   -92439.825     237.9085    20724    226548.39    7.5671051    146.02515    33.089043   -156.41288    435.02711    23.502797    22.157722   0.52404261    435.55116    -2781.742 
   14800   -102188.83   -92400.418    237.69888    20724    226404.65    -60.01042    36.749054    12.331978   -229.11229    435.14669    23.492111    22.147648   0.46425563    435.61094   -2823.0671 
   14900   -102189.56   -92377.722    238.26763    20724    226407.61    33.023034   -79.181127    89.617612    88.632615    434.87088    23.499713    22.154815   0.60216197    435.47304   -2850.9828 
   15000   -102166.47   -92343.052    238.54895    20724    226518.99   -49.429578   -65.303125    145.87378   -228.85939    434.89441    23.504857    22.159665   0.59039557     435.4848   -2878.6778 
   15100   -102229.36   -92375.408    239.29038    20724    226300.97   -55.644473   -106.68337    90.232328   -150.48238    434.57882    23.502071    22.157039   0.74818787    435.32701   -2854.2769 
   15200    -102166.6   -92337.919    238.67672    20724    226287.65    26.550704    83.193036    98.010919   -101.55184    434.65292    23.499376    22.154497   0.71113769    435.36406   -2894.3912 
   15300   -102189.52   -92338.384     239.2221    20724    226366.37   -90.108928   -194.24767   -100.95111    24.871999    434.56034    23.505967    22.160711   0.75742865    435.31777   -2890.6081 
   15400   -102056.48   -92307.458     236.7423    20724    226289.41    96.506869    113.86119    2.5561633    173.10325     434.4701    23.504412    22.159245   0.80254789    435.27265   -2931.0052 
   15500      -102128   -92293.968     238.8066    20724     226210.7    5.0512783    53.334308    -133.0526    94.872122    434.41098    23.501922    22.156898   0.83210943    435.24309   -2945.0047 
   15600   -101994.07   -92286.397    235.73828    20724    226345.27    136.72371    165.78862    164.81275     79.56977    434.33188    23.511053    22.165506   0.87165827    435.20354   -2954.4021 
   15700   -102138.59    -92269.26    239.66379    20724    226322.31   -53.817044    10.882818   -37.090914   -135.24303    434.43501     23.50707    22.161751   0.82009501     435.2551   -2963.7158 
   15800    -102128.3    -92313.11    238.34922    20724    226385.12     29.81112    211.59969   -194.12926    71.962924    434.59172    23.506092    22.160829    0.7417408    435.33346   -2923.2837 
   15900   -102100.51   -92307.371    237.81362    20724    226311.69    28.544015    26.861409    108.80605    -50.03541     434.4995    23.504773    22.159586   0.78785224    435.28735   -2932.9263 
   16000   -102079.68   -92284.555    237.86188    20724    226389.61   -23.948706    298.06827    34.453701   -404.36809    434.60104    23.506073    22.160811   0.73707859    435.33812   -2953.4507 
   16100    -102176.2   -92213.281    241.93661    20724    226460.85   -50.900078     188.9834   -255.31843   -86.365204    434.71826    23.506601    22.161309   0.67846763    435.39673   -3022.5229 
   16200   -102033.93   -92183.345    239.20859    20724     226537.9    35.587662    38.819876    232.27357   -164.33046    434.95119    23.504303    22.159143   0.56200455     435.5132   -3054.9675 
   16300   -101988.43   -92173.412    238.34503    20724    226594.32    88.372906    189.12958    92.745847   -16.756711    435.02636    23.505199    22.159987   0.52442164    435.55078   -3066.3051 
   16400   -102023.17   -92129.962    240.24369    20724    226499.62   -94.921907   -83.159277   -86.900832   -114.70561    434.92077    23.503139    22.158045   0.57721635    435.49798   -3103.5477 
   16500   -102005.21   -92140.247    239.55768    20724     226568.2    59.969871    35.015102    272.20191    -127.3074    435.07143    23.502627    22.157562   0.50188253    435.57332    -3099.852 
   16600   -101953.69   -92145.724    238.17367    20724    226503.14    39.443778    55.476706   -108.33551    171.19014    434.92915    23.503096    22.158004   0.57302617    435.50217   -3097.9481 
   16700   -101994.79   -92159.009    238.84917    20724     226594.8    3.3241618   -78.457088    137.03187   -48.602299    434.99895    23.505964    22.160709   0.53812319    435.53708   -3079.7845 
   16800   -101951.88   -92152.844    237.95684    20724    226388.38    16.215273   -163.74732    206.68328    5.7098528    434.78547    23.501023     22.15605   0.64486449    435.43034   -3092.8048 
   16900   -101983.83   -92145.801    238.90364    20724    226369.54    45.881112  -0.52189012    144.23791   -6.0726822    434.99382    23.494417    22.149822   0.54069187    435.53451   -3102.2888 
   17000   -102032.17   -92174.139    239.38953    20724    226429.65    6.3160186   -81.172478   -192.26372    292.38426     434.9179    23.499587    22.154696   0.57864978    435.49655   -3070.7351 
   17100   -102031.26    -92183.48     239.1404    20724    226336.67   0.31061874    68.993225   -6.3891498   -61.672219    434.68423    23.501075      22.1561    0.6954867    435.37971   -3066.0603 
   17200   -102015.38    -92146.27    239.65841    20724    226407.84    16.576407    13.954942    51.843446   -16.069167     434.6678    23.505214    22.160002   0.70370082     435.3715   -3102.2287 
   17300   -101906.83   -92107.114    237.97344    20724    226462.06     43.98921    3.3763222    44.853829    83.737479    434.82533     23.50377     22.15864   0.62493525    435.45026   -3141.0403 
   17400    -101952.1   -92056.399     240.3042    20724    226436.13    57.391028    76.279854    105.85698   -9.9637531    434.66274     23.50682    22.161515   0.70623027    435.36897   -3195.1298 
   17500   -101931.47   -92082.466    239.17013    20724    226353.84    2.6550797    197.46699   -183.81771   -5.6840449    434.70961    23.501281    22.156293   0.68279455    435.39241   -3169.9747 
   17600   -101942.07   -92079.727    239.49411    20724    226409.16    71.135164    83.000941    245.40262   -114.99807    435.04725     23.49503      22.1504   0.51397279    435.56123   -3175.8575 
   17700   -101813.21   -92030.646    237.55689    20724    226356.57    27.715386    57.657627    6.1170915    19.371439    434.88407    23.496708    22.151982     0.595567    435.47963   -3225.5985 
   17800   -101818.66   -91980.419    238.90879    20724    226456.28    27.142982    193.45568    153.89181   -265.91854    434.91143    23.501143    22.156163   0.58188269    435.49332   -3273.9455 
   17900   -101821.14   -91979.477    238.99201    20724    226365.06    8.5780913     40.08005    -91.72081    77.375034    434.78078    23.499939    22.155029   0.64720856    435.42799   -3277.5033 
   18000   -101937.65   -92018.519    240.87315    20724     226599.5   -45.693579   -169.76103    103.60094   -70.920645     434.9944    23.506331    22.161055   0.54039998     435.5348   -3231.4174 
   18100   -101952.83    -92010.39    241.43933    20724     226524.2    25.402986    -25.94096    125.34876    -23.19884    434.85564    23.506175    22.160907   0.60977943    435.46542   -3246.3867 
   18200   -101864.21   -91993.569    239.69567    20724    226232.37   -58.386465   -370.84993    11.043809    184.64672    434.55586     23.49913    22.154265   0.75966974    435.31553   -3267.5355 
   18300   -101887.91   -91943.419    241.48899    20724    226333.63   -52.117006   -73.752307   -87.964623    5.3659108    434.52244    23.505292    22.160075   0.77638029    435.29882   -3317.2107 
   18400   -101862.34   -91959.914    240.46762    20724    226389.21    94.949227    127.24522    59.842975    97.759489    434.65622     23.50456    22.159385   0.70948892    435.36571   -3307.3077 
   18500   -101791.22   -91923.049    239.63564    20724    226407.83    2.6179441    36.982053    264.06257   -293.19079    434.45045    23.511092    22.165543   0.81237258    435.26283   -3337.7463 
   18600   -101812.79   -91926.672    240.07146    20724    226323.32   -26.428337      27.0639    142.59805   -248.94696    434.48723    23.505709    22.160468   0.79398364    435.28122   -3338.0181 
   18700   -101971.72   -91961.858    243.07638    20724     226222.6   -29.841247    14.247796   -173.49625    69.724716    434.58413    23.497858    22.153066   0.74553372    435.32967   -3306.9538 
   18800   -101860.56   -91957.738    240.47719    20724    226185.58    25.188667     202.4896   -29.431269    -97.49233    434.50134    23.498174    22.153364   0.78693039    435.28827   -3315.2647 
   18900   -101929.83   -91938.097    242.63626    20724    226493.15    8.3215029    4.3630422   -10.689233      31.2907    434.83007    23.505255     22.16004   0.62256332    435.45264   -3325.9127 
   19000   -101889.11   -91939.076     241.6235    20724    226133.25   -109.03126    -138.4882   -33.507326   -155.09826    434.58376    23.493228    22.148701   0.74572241    435.32948   -3331.5309 
   19100   -101795.04   -91898.007    240.33657    20724    226366.64    59.277812    34.260849   -88.245464    231.81805    434.59414    23.505067    22.159863   0.74053138    435.33467   -3373.2078 
   19200   -101810.54   -91892.131    240.85555    20724    226376.43    44.003598   -39.509739   -178.65127    350.17181     434.4761    23.508768    22.163352   0.79955062    435.27565   -3377.5145 
   19300   -101770.44   -91853.928    240.80957    20724    226335.89    85.736521   -68.913115   -208.17577    534.29845    434.57973     23.50386    22.158725   0.74773594    435.32746    -3421.848 
   19400   -101780.55   -91829.367    241.65141    20724    226383.07   -18.352314   -2.0369156    168.27115   -221.29118    434.64178    23.504632    22.159452   0.71670885    435.35849   -3438.1562 
   19500   -101792.47   -91800.361    242.64533    20724    226262.91   -41.423605    2.7438799    38.778259   -165.79295    434.50905    23.501982    22.156954   0.78307261    435.29213   -3473.6506 
   19600   -101783.83   -91807.753    242.25605    20724    226284.44   -1.2860752   -45.795931    75.730785    -33.79308    434.61679    23.500187    22.155262    0.7292046      435.346   -3467.0072 
   19700      -101716   -91806.969    240.62783    20724    226289.87    89.053375     227.4166   -19.017588    58.761114    434.57326    23.501646    22.156637   0.75096823    435.32423   -3472.6128 
   19800   -101760.77   -91767.283    242.67885    20724    226284.43   -33.320572     -88.3296    -61.57161    49.939492     434.5118    23.503025    22.157938    0.7816999     435.2935   -3508.5688 
   19900   -101690.56   -91763.114    241.07508    20724    226257.73   -50.373348   -6.4642271    126.35272   -271.00854    434.45535    23.503165     22.15807   0.80992624    435.26527   -3514.1852 
   20000   -101617.57   -91719.271    240.36731    20724    226403.34    66.072791    89.044081    321.88993   -212.71564    434.83304    23.500514     22.15557      0.62108    435.45412   -3558.4268 
   20100   -101757.67   -91670.279    244.95912    20724    226320.11    1.0276415   -187.16512    97.737732     92.51031    434.66082    23.500848    22.155885   0.70718903    435.36801   -3609.6074 
   20200   -101621.98   -91642.706    242.33372    20724    226293.91    82.645311    287.20808    180.42255   -219.69469    434.65283    23.499704    22.154806   0.71118569    435.36401   -3641.7471 
   20300   -101694.86   -91691.437     242.9202    20724    226214.54    18.791331    86.171315    38.399277   -68.196597    434.82733    23.490868    22.146476   0.62393603    435.45126   -3593.6225 
   20400   -101730.98   -91695.476    243.69919    20724    226304.39    41.894451    86.182895   -7.5928017    47.093259    434.90307    23.493487    22.148945    0.5860652    435.48913   -3590.7328 
   20500   -101746.06    -91706.06    243.80828    20724    226310.82    40.887997   -118.52688    134.90287      106.288    434.77668    23.497235    22.152479    0.6492598    435.42594   -3578.9847 
   20600   -101655.94   -91690.139    242.00657    20724     226178.3    34.530109   -99.198771   -41.411682    244.20078     434.8474    23.488444    22.144191   0.61389979     435.4613   -3599.9422 
   20700   -101772.62   -91708.465     244.3949    20724     226302.1   -83.214669    73.395896   -80.677388   -242.36252    434.66516    23.499796    22.154893   0.70502051    435.37018   -3574.5375 
   20800    -101691.1   -91727.788    241.94609    20724     226136.4    90.092123    13.117665     226.0861    31.072599    434.51716    23.495192    22.150552   0.77902172    435.29618   -3568.8212 
   20900      -101647   -91720.776    241.04549    20724    226165.25    41.933568    88.861744   -90.914434    127.85339    434.55065    23.495785    22.151112   0.76227576    435.31292   -3570.7279 
   21000   -101659.38   -91711.534     241.5705    20724    226121.17    18.473914   -177.50007    108.94071     123.9811    434.31132    23.499967    22.155054   0.88194019    435.19326   -3583.4597 
   21100   -101677.48   -91687.823    242.58577    20724    226156.71     34.27224   -196.14561     125.7452    173.21713     434.4736    23.497424    22.152657   0.80079904     435.2744   -3609.6791 
   21200   -101613.21    -91673.11    241.38233    20724    226068.58    6.5852879   -54.195974   -146.60853    220.56037     434.2842    23.497968     22.15317   0.89549969     435.1797   -3626.1286 
   21300   -101679.35    -91672.39    243.00591    20724    226267.75    95.008635    104.05822   -24.422504    205.39019    434.46418    23.503447    22.158335   0.80550939    435.26969    -3625.875 
   21400   -101552.46   -91625.877    241.05422    20724    226162.21    -25.17622    76.500272   -118.67047   -33.358463    434.38781     23.50003    22.155114   0.84369379    435.23151   -3669.1362 
   21500   -101633.87   -91647.968     242.4946    20724    226068.89    26.380849   -10.623212   -38.887659    128.65342    434.12854    23.502196    22.157156   0.97332778    435.10187   -3654.5077 
   21600   -101645.89    -91628.83    243.25128    20724    226241.65    17.886462    99.474636    -35.37976   -10.435491    434.30739    23.506333    22.161056    0.8839027     435.1913   -3669.5458 
   21700   -101668.62   -91654.416    243.18198    20724    226160.11   -81.872741   -281.24613    165.70067   -130.07277    434.63163    23.493329    22.148796   0.72178531    435.35341   -3643.0733 
   21800   -101640.62   -91646.615    242.69141    20724    226106.75    78.048989     143.8487   -30.591079    120.88935    434.24742    23.500947    22.155978   0.91389233    435.16131   -3662.1309 
   21900   -101597.52   -91600.185    242.77216    20724    226151.44    76.433711    158.84313    137.89255   -67.434544    434.53386    23.495521    22.150863   0.77066997    435.30453   -3707.6371 
   22000   -101644.24   -91618.801    243.45473    20724    226187.58    4.9268162    126.77549   -138.40163    26.406591    434.54189    23.497181    22.152428   0.76665654    435.30854   -3685.4255 
   22100   -101562.67   -91603.222    241.85217    20724    226108.34    37.246773   -46.659686    97.807346     60.59266    434.67701    23.489414    22.145105   0.69909657     435.3761   -3706.1205 
   22200   -101625.35   -91587.895    243.74644    20724    226279.05   -9.1215221    -26.99019   -23.211542    22.837166    434.74909    23.496331    22.151626   0.66305484    435.41215   -3718.0928 
   22300   -101644.81   -91599.889    243.92773    20724    226244.79   -61.063671    60.612816    -291.4873    47.683474    434.32913    23.505908    22.160655   0.87303268    435.20217   -3706.8179 
   22400   -101619.23   -91622.389    242.76015    20724    226002.54    13.360865   -9.7882197     133.5841   -83.713287    434.19231    23.497022    22.152278   0.94144715    435.13375   -3694.0887 
   22500   -101606.22   -91609.316    242.76189    20724    226183.01     81.94736    61.262644    66.743254    117.83618    434.24065    23.505092    22.159887   0.91727528    435.15792   -3704.5063 
   22600   -101491.38   -91566.881    241.00359    20724    226094.29    63.980163    154.63558    98.389491   -61.084585    434.03263    23.506113    22.160849     1.021284    435.05392   -3751.3074 
   22700   -101583.41   -91573.508    243.07732    20724    226070.87    68.903388    162.13096    -161.4326     206.0118     434.0726    23.503813    22.158681    1.0013005     435.0739   -3749.4971 
   22800   -101469.38   -91531.023    241.33996    20724    226053.37   -39.926119   -38.108271   -18.731405   -62.938681    434.13577    23.501194    22.156211   0.96971298    435.10549   -3785.8868 
   22900   -101558.65   -91569.706    242.56843    20724    226079.96   -4.1971367   -34.774962    17.993243    4.1903085    434.19243    23.501043    22.156069   0.94138616    435.13381   -3749.1344 
   23000   -101498.61   -91590.705    240.60065    20724    226073.85    9.3240399    106.65522   -80.532303    1.8492004    433.98966    23.506214    22.160944    1.0427678    435.03243   -3729.8357 
   23100   -101557.37   -91573.976    242.43363    20724    226000.88   -51.819838    24.827025   -108.49298    -71.79356    433.99003     23.50241    22.157358    1.0425844    435.03262   -3747.4316 
   23200   -101558.46   -91560.856    242.77889    20724    226195.71    15.809064   -11.467748   -20.934807    79.829746     434.1401    23.508475    22.163075   0.96755123    435.10765   -3759.5249 
   23300   -101630.78   -91551.005    244.77415    20724    226168.94   -79.944865   -221.22129    255.13246   -273.74577    433.89502    23.513721    22.168021    1.0900916    434.98511   -3766.6316 
   23400   -101584.19   -91547.275    243.73331    20724    226220.18    37.115974   -107.08973    39.694069    178.74358    434.07819    23.511422    22.165854   0.99850512    435.07669   -3775.0811 
   23500   -101422.26   -91496.325    241.03835    20724    226240.73    41.422132    11.033422   -77.964185    191.19716    434.22662    23.508471    22.163072   0.92428968    435.15091   -3827.5502 
   23600   -101558.86   -91533.344    243.45649    20724    226264.13    35.460186   -166.22747    112.35256    160.25547    434.12435    23.512456    22.166829   0.97542605    435.09977   -3790.4602 
   23700   -101638.75   -91534.038    245.37973    20724    226169.88   -53.585264   -10.654223    30.439465   -180.54103    433.84192    23.515209    22.169424      1.11664    434.95856   -3790.6649 
   23800   -101485.21   -91519.866     241.9953    20724    226219.39   -29.084685    57.986394    34.668493   -179.90894    433.92629    23.515497    22.169695    1.0744572    435.00074   -3805.1868 
   23900   -101559.52   -91538.614    243.34464    20724    226120.18   -82.628516    8.6069224   -191.65811   -64.834365    433.82125    23.513185    22.167516    1.1269773    434.94822    -3788.125 
   24000   -101490.12   -91515.995    242.20861    20724    226164.85    -2.405645   -146.48085    29.224745    110.03917    433.85226    23.514667    22.168913    1.1114722    434.96373   -3814.2725 
   24100   -101557.46   -91535.377    243.37331    20724    226190.29    18.874794    96.229719   -42.889836    3.2844995    433.93266    23.513811    22.168106    1.0712676    435.00393   -3797.5236 
   24200   -101527.01   -91528.376     242.8038    20724    226225.81   -37.862367    5.0721689   -178.45469    59.795421    434.19961    23.508427    22.163031   0.93779294    435.13741   -3801.1399 
   24300   -101542.67   -91507.818    243.68336    20724     226181.7    63.825901     45.38689    303.14604   -157.05522     434.0131    23.511185    22.165631    1.0310514    435.04415   -3830.6396 
   24400   -101492.37   -91486.182    242.98728    20724    226055.35   -68.500145   -221.98501    213.36064   -196.87606    433.89152    23.507911    22.162543    1.0918387    434.98336   -3845.1986 
   24500   -101403.17    -91478.88    240.99835    20724     225902.3    29.446509     68.60943   -172.92177    192.65187    433.82803    23.501671    22.156661    1.1235864    434.95161   -3864.5168 
   24600   -101454.56   -91457.826    242.75772    20724    225925.08    14.867915    58.054266   -111.52131    98.070785    433.82116    23.503042    22.157953    1.1270179    434.94818   -3884.2285 
   24700   -101523.16   -91444.472    244.74785    20724    226353.32   -27.186788    -114.5333     46.86677   -13.893838     434.1264    23.517034    22.171145   0.97440035     435.1008   -3884.8598 
   24800   -101480.88   -91469.681    243.10892    20724    226001.43    -31.94782   -57.167502   -140.72216     102.0462    433.64609    23.511757     22.16617    1.2145542    434.86065   -3870.5084 
   24900   -101463.56   -91476.896    242.51316    20724    226042.86    12.404671    -88.44722    118.05202    7.6092152     433.8022    23.509681    22.164212    1.1364984     434.9387   -3866.5889 
   25000   -101529.99   -91476.348    244.13961    20724    225945.83    8.7376554    -21.96304    191.72513   -143.54912    433.78872       23.505    22.159799    1.1432409    434.93196   -3870.8117 
   25100   -101409.76   -91459.553    241.62788    20724    226071.37   -1.9999381    2.5010555    52.994255   -61.495125    433.61635    23.516201     22.17036    1.2294247    434.84578   -3884.1718 
   25200   -101554.74   -91495.801    244.26812    20724    225931.13    32.438064    15.999235    143.88794   -62.572986    433.61115    23.509048    22.163615    1.2320264    434.84317    -3854.537 
   25300   -101479.13   -91480.969    242.79224    20724    226037.01    40.416338   -25.303359    104.93698    41.615391    433.57192    23.515619    22.169811    1.2516414    434.82356   -3866.7839 
   25400   -101462.36   -91527.396    241.25771    20724    225966.33    142.32855    43.147373   -2.9730769    386.81134    433.60945    23.510925    22.165385    1.2328775    434.84232   -3829.1838 
   25500   -101571.32   -91470.137    245.29401    20724    225926.66   -73.024776    -111.1557   -71.733949   -36.184681    433.87305    23.501718    22.156706    1.1010732    434.97413   -3879.2404 
   25600   -101488.12   -91423.777    244.39941    20724    225907.69     120.6499    169.60257    161.58245    30.764675    433.78815    23.503031    22.157943    1.1435268    434.93167   -3937.9711 
   25700   -101403.32    -91412.01      242.626    20724    226016.29   -113.14671    13.668244     21.82501   -374.93339    433.73965    23.509994    22.164508    1.1677753    434.90742   -3934.8652 
   25800   -101523.86   -91420.048     245.3579    20724    225909.91    -25.14414   -225.67361   -172.70928    322.95047    433.89525    23.500246    22.155317    1.0899762    434.98522    -3936.468 
   25900   -101363.64   -91398.416    241.99257    20724    225881.51    27.640683   -72.236877   -176.48222    331.64114    433.62389     23.50612    22.160856    1.2256556    434.84954   -3961.9372 
   26000   -101428.73   -91371.359    244.23013    20724    225992.13   -35.437347   -162.67228   -163.06829    219.42854    433.62701    23.511791    22.166202    1.2240931    434.85111   -3983.5347 
   26100   -101418.91   -91359.151    244.28815    20724    225781.38   -15.656835    25.945149   -176.99848    104.08282    433.62173    23.500968    22.155998    1.2267335    434.84847   -4004.8002 
   26200   -101419.79   -91371.206    244.01689    20724       225900   -43.410806   -100.08071    30.033988     -60.1857    433.84507    23.501089    22.156113    1.1150647    434.96014   -3987.9918 
   26300   -101381.95   -91362.729    243.30369    20724    225843.86    14.687873    198.48648    26.373739    -180.7966    433.56104    23.505865    22.160615    1.2570815    434.81812   -4001.8267 
   26400   -101479.36   -91368.754    245.52296    20724    225890.97   -6.1252405    17.022505    369.10912   -404.50735    433.77424    23.502538    22.157479    1.1504779    434.92472   -3995.1454 
   26500    -101459.6   -91375.573    244.87755    20724    225619.76     37.41184    186.50487    67.063871   -141.33322    433.67295    23.491168    22.146759    1.2011231    434.87408   -4000.7151 
   26600   -101444.16   -91365.199    244.75452    20724     225920.1   -89.481789   -146.70657   -57.695541   -64.043258    433.85658    23.501823    22.156804    1.1093078    434.96589   -3995.3081 
   26700   -101381.54   -91364.341    243.25471    20724    225920.64    23.062797   -35.291591    26.461507    78.018474    433.76298    23.504387    22.159222    1.1561093    434.91909   -4002.9176 
   26800   -101465.93    -91410.32    244.18728    20724    225896.76   -42.382344   -112.38884    98.417929   -113.17612    433.63909    23.506502    22.161215    1.2180528    434.85715   -3957.5998 
   26900   -101488.94   -91380.673    245.46605    20724    225885.74   -48.141178    93.905344   -273.29393    34.965057    433.74397    23.503086    22.157995    1.1656158    434.90958   -3987.6494 
   27000   -101361.37   -91299.911    244.32933    20724    225888.44      58.6962    109.99515    131.99956   -65.906104    433.82759    23.500962    22.155992    1.1238065    434.95139   -4073.0519 
   27100   -101317.29   -91321.981    242.72317    20724    225820.28    13.846722   -32.837991    -129.6703    204.04846    433.77289    23.498897    22.154046     1.151156    434.92404   -4050.8719 
   27200    -101379.8   -91306.971    244.60564    20724    225993.02     74.98502    181.95267 -0.054754486    43.057147    434.00413     23.50162    22.156613    1.0355366    435.03966   -4066.2992 
   27300   -101364.47   -91331.538     243.6367    20724    225868.06  -0.56767438    108.05176     50.33956   -160.09435    433.78492    23.501057    22.156082    1.1451403    434.93006   -4042.5421 
   27400   -101424.06   -91319.086    245.38601    20724    226023.96    70.513988    202.30637   -12.421317    21.656909    433.95159    23.504651    22.159471    1.0618036     435.0134   -4056.4757 
   27500   -101367.81   -91302.153     244.4314    20724    226129.28    50.091488    153.00258    67.415498   -70.143613    434.22323    23.502772    22.157699   0.92598434    435.14922   -4070.2335 
   27600   -101389.86   -91316.099     244.6282    20724    226041.41    32.799889     37.85563    85.890759   -25.346722    434.24655    23.497574    22.152799   0.91432484    435.16088   -4057.0174 
   27700   -101290.36   -91296.448    242.68903    20724    226065.34   -40.755265   -75.089737   -67.422948     20.24689    433.96723    23.506379      22.1611    1.0539869    435.02121    -4074.497 
   27800    -101365.8   -91272.915    245.09251    20724    226252.57   -39.245308   -43.071203   -81.498009    6.8332891    434.08766    23.512849    22.167199   0.99376937    435.08143   -4093.8243 
   27900   -101372.66   -91251.402    245.78164    20724    226077.67   -10.985722   -100.10872     41.24663    25.904924    434.05023    23.504772    22.159585    1.0124855    435.06271   -4123.7893 
   28000   -101372.43   -91242.913    245.98204    20724    226157.28     29.03193    7.2651507   -98.087607    177.91825    434.18962    23.505137    22.159929    0.9427911    435.13241   -4131.3579 
   28100   -101385.03   -91243.848    246.26549    20724    226056.29   -58.312277   -20.055315   -192.66743    37.785911    434.09927    23.502333    22.157285   0.98796259    435.08724   -4129.0138 
   28200   -101280.87   -91234.835    243.95498    20724    226052.59   -2.7365169   -79.183537   -44.966783    115.94077    433.87003    23.508349    22.162957    1.1025871    434.97261   -4143.8068 
   28300   -101344.61   -91243.244    245.29843    20724    226183.59   -2.0684814    95.291246    125.76795   -227.26464     434.1473     23.50765    22.162297   0.96395162    435.11125   -4131.9312 
   28400   -101309.56   -91216.147    245.10534    20724    226154.77    54.057538    285.79431    -125.8266    2.2049002    434.05401    23.508678    22.163267    1.0105939    435.06461   -4162.6425 
   28500   -101244.65   -91194.664     244.0507    20724    226020.11   -14.216395   -121.42717   -6.0838491    84.861838    434.28606    23.495399    22.150747   0.89457046    435.18063   -4185.9158 
   28600   -101244.57   -91197.314    243.98452    20724    226173.98    77.044922    107.85983    154.20901   -30.934076    433.96136    23.512186    22.166574    1.0569218    435.01828   -4184.2071 
   28700   -101310.95   -91219.222    245.06438    20724    225982.71    14.072794   -71.864204    421.83428   -307.75169    433.95685    23.502364    22.157314    1.0591736    435.01603   -4169.1433 
   28800   -101336.39   -91190.454    246.38081    20724    226243.91    42.862836   -176.52401    252.38732    52.725203     433.9878    23.515104    22.169325    1.0437004     435.0315   -4193.0448 
   28900   -101312.77   -91190.751    245.80009    20724    226057.09   -23.948022   -54.572609    44.270411   -61.541867    434.01145    23.504753    22.159567    1.0318771    435.04332   -4194.4507 
   29000   -101358.66   -91165.455    247.52876    20724    226121.19    22.008537   -57.874466   -21.394818    145.29489    434.01539    23.507978    22.162607    1.0299025     435.0453   -4220.4525 
   29100   -101289.01   -91169.275    245.74446    20724    226213.06    96.790015    1.3007497   -126.04562    415.11491    434.09753    23.510528    22.165012   0.98883499    435.08637    -4220.407 
   29200   -101165.46    -91121.84    243.89615    20724       226083    85.064784    380.01761   -101.29864   -23.524615    433.79148    23.512059    22.166454    1.1418585    434.93334   -4270.3976 
   29300   -101245.54   -91130.072    245.64102    20724    226234.86   -18.904753    24.135469    60.270061   -141.11979    434.03586    23.513331    22.167654    1.0196684    435.05553   -4254.4258 
   29400   -101234.32   -91117.105    245.68326    20724     226160.7    29.070335    64.579641   -103.38179    126.01316    433.89667    23.513248    22.167576    1.0892644    434.98594   -4273.9192 
   29500   -101293.17   -91093.058    247.69632    20724    226247.04    27.353946    40.192589    49.002754   -7.1335038    433.88949     23.51793     22.17199    1.0928553    434.98234   -4296.7254 
   29600    -101193.7   -91089.866    245.35846    20724    226206.76    5.8068705     177.0841   -141.91454   -17.748949     433.7232    23.520344    22.174266    1.1759994     434.8992    -4299.295 
   29700    -101226.1   -91094.466    246.03345    20724    226238.85    58.724397    153.34961    -52.10779    74.931375    433.68305    23.523102    22.176865    1.1960774    434.87912   -4297.8381 
   29800   -101275.03   -91093.285    247.25036    20724       226031   -12.446684   -95.272887    178.93099   -120.99816    433.58892    23.514846    22.169082    1.2431392    434.83206    -4302.778 
   29900   -101148.81   -91057.353    245.05778    20724     226045.5    37.266973    37.361938     153.3847    -78.94572    433.95101    23.505787    22.160541    1.0620958     435.0131   -4340.5904 
   30000   -101148.23   -91068.439    244.77471    20724    226052.14     48.90499   -80.066687   -17.451487    244.23314    433.63415    23.514719    22.168962    1.2205228    434.85468   -4330.9686 
   30100   -101138.06   -91026.861    245.53735    20724    226217.62    -12.62741     190.3256    184.43669   -412.64452    433.85633      23.5173    22.171395    1.1094364    434.96576    -4366.066 
   30200   -101154.32   -91026.193    245.94839    20724    225929.71    -11.29546   -58.643409    288.33381   -263.57679    433.61643    23.508831    22.163411    1.2293873    434.84581   -4377.1192 
   30300   -101152.31   -91004.457    246.42746    20724    225945.43   -28.965336   -53.502974    90.706802   -124.09984    433.76546    23.505609    22.160374    1.1548718    434.92033   -4398.5329 
   30400   -101218.84    -91015.07     247.7853    20724    225974.26     10.91995   -140.79144    193.27974   -19.728443    433.95908    23.501864    22.156843    1.0580593    435.01714   -4390.2034 
   30500   -101235.62   -91001.943    248.51148    20724    225962.61   -57.445303    88.566637   -167.48028   -93.422268    433.75252    23.506854    22.161547    1.1613421    434.91386   -4401.6243 
   30600   -101144.01   -90964.694    247.19151    20724    225756.79   -111.90754   -166.28356   -116.72929   -52.709783    433.42008    23.505154    22.159945    1.3275577    434.74764   -4443.2573 
   30700   -101197.88   -90978.933    248.15381    20724    225952.89   -10.012026    19.716746    73.307033   -123.05986    433.73589    23.506799    22.161495    1.1696563    434.90554    -4431.426 
   30800   -101015.37   -90948.389    244.46362    20724     225723.8    54.059523   -40.399474    437.51637   -234.93832    433.64576    23.497321    22.152559    1.2147203    434.86048   -4470.7757 
   30900   -101285.87    -91011.27    249.50519    20724    225870.33   -25.338498      267.148   -87.157406   -256.00609    433.65229    23.504769    22.159582    1.2114571    434.86374   -4405.3486 
   31000   -101124.22    -91013.05    245.53661    20724    225771.05    -41.96769   -96.070182   -144.73207    114.89918    433.51675    23.503276    22.158174    1.2792254    434.79597   -4404.3352 
   31100   -101161.63   -90983.958    247.15139    20724    225739.24    3.9725105    58.087174   -144.81396    98.644318    433.32833    23.506729     22.16143    1.3734366    434.70176   -4437.8297 
   31200   -101134.28    -90956.16    247.16239    20724    225777.42    45.647546    124.13219    45.953695   -33.143244    433.38702    23.507125    22.161803    1.3440895    434.73111   -4468.2592 
   31300    -101168.3   -90930.298    248.61652    20724    225666.71   -27.934876    30.036521   -7.0107152   -106.83043    433.30399    23.503613    22.158491    1.3856031     434.6896   -4495.1037 
   31400   -101140.66   -90927.598    248.01093    20724    225796.19    16.059971   -33.317397    12.769142    68.728169    433.35764    23.508899    22.163475      1.35878    434.71642    -4495.929 
   31500   -101128.11   -90904.109    248.27649    20724    225705.04    54.413432    154.94652   -12.897956    21.191727    433.23203    23.507561    22.162214     1.421587    434.65361   -4526.7255 
   31600   -100979.84   -90902.223    244.72192    20724    225750.48    102.20435    144.70209   -286.21199    448.12295    433.23739    23.509781    22.164307    1.4189071    434.65629   -4527.5695 
   31700   -101025.34   -90929.811    245.15668    20724    225831.74    58.597871    19.542303   -120.76554    277.01685    433.49753    23.506956    22.161643    1.2888349    434.78637   -4497.3455 
   31800   -101019.69   -90859.716    246.72174    20724    225873.91    -21.05889   -56.188037     380.1646   -387.15324    433.22424    23.516564    22.170702    1.4254792    434.64972    -4563.441 
   31900   -101058.38   -90881.604    247.12978    20724    225836.33    -40.53023   -167.78717    36.746704    9.4497799     433.1742    23.515966    22.170138    1.4504983     434.6247   -4544.4026 
   32000   -101110.25   -90896.279    248.03309    20724    225752.66   -21.155546   -89.750139    79.350693   -53.067192    433.12079    23.513059    22.167397    1.4772038      434.598   -4533.3592 
   32100   -101193.14   -90881.143    250.41349    20724    225659.56   -79.719024   -89.623683    69.430806    -218.9642    433.07106     23.50956    22.164099    1.5020692    434.57313   -4550.9795 
   32200   -101099.36    -90866.98    248.48005    20724     225842.2   -92.048902   -122.22044    181.74121   -335.66748    433.49249    23.507637    22.162286    1.2913574    434.78384   -4559.5605 
   32300   -100965.86   -90872.002    245.11616    20724    225856.39   -18.179914    244.47535   -181.15252   -117.86257    433.22424    23.515653    22.169842    1.4254809    434.64972   -4556.9449 
   32400   -101047.33   -90915.095    246.04822    20724    225663.45    119.89742    85.869454    193.54921    80.273601    433.46439    23.499094    22.154231    1.3054045     434.7698   -4530.6063 
   32500   -101017.95   -90857.147    246.74186    20724    225658.14    22.346882    67.858746   -228.67136    227.85326    433.35447    23.501797     22.15678    1.3603639    434.71484   -4584.6555 
   32600   -101031.03   -90832.445    247.65939    20724    225780.46   -37.333444    69.648023     140.4774   -322.12575    433.43302    23.506036    22.160776    1.3210895    434.75411   -4604.0818 
   32700   -100939.84   -90811.737    245.94771    20724    225923.94  -0.30385054    248.34166   -158.97102   -90.282187     433.4845    23.512107      22.1665     1.295348    434.77985   -4622.2844 
   32800   -101093.46   -90827.225    249.30215    20724    225940.42    9.9305809   -107.62339    121.15299    16.262145    433.66719    23.508012    22.162639    1.2040055    434.87119   -4610.2526 
   32900   -101019.27   -90840.777    247.17149    20724    225779.14   -55.166159    -76.56957   -126.99816    38.069253    433.55228    23.502734    22.157663    1.2614595    434.81374    -4599.881 
   33000   -101053.11   -90844.021    247.91454    20724     226054.7    116.91876    137.61866    160.17144    52.966178    433.76135    23.511404    22.165837    1.1569266    434.91827   -4597.0101 
   33100   -101118.16    -90826.92    249.90941    20724    225777.71   -4.1441957   -140.90485    451.28601   -322.81375     433.2877    23.509834    22.164357    1.3937502    434.68145    -4619.413 
   33200    -100967.7   -90817.001    246.49652    20724    225865.51   -7.9805202    81.903968   -142.34568    36.500149    433.61328    23.505576    22.160342    1.2309591    434.84424   -4624.4363 
   33300   -101074.45    -90803.21    249.42362    20724    226021.38   -15.781208    132.95876   -239.14309    58.840708     433.3207    23.521622     22.17547    1.3772483    434.69795    -4638.369 
   33400   -101036.65   -90797.002    248.65657    20724    225975.57     12.50717    12.260797    255.27725   -230.01654    433.38304    23.517546    22.171627    1.3460822    434.72912    -4647.619 
   33500   -101025.83   -90798.266    248.36315    20724     226040.6   -74.946743   -64.382791    30.271888   -190.72933    433.74761    23.511043    22.165496    1.1637926    434.91141   -4642.8135 
   33600   -100999.08   -90793.979    247.81758    20724    225743.27    11.152076   -93.580319     -116.811    243.84755    433.25202    23.509009    22.163579    1.4115898    434.66361   -4660.3934 
   33700   -100984.23    -90752.45    248.46554    20724    225795.35   -41.573771   -115.13265    155.05044    -164.6391    433.33917    23.509356    22.163906    1.3680129    434.70719    -4699.129 
   33800   -100914.86   -90784.448    246.00383    20724    225857.01   -13.256643   -138.17226   -52.633082    151.03541    433.63983    23.504414    22.159247     1.217683    434.85752   -4666.6273 
   33900   -100943.77   -90794.207      246.469    20724    225860.73    75.388667    211.11955    66.293408   -51.246957    433.78235    23.500745    22.155788    1.1464261    434.92877   -4660.6766 
   34000   -100945.98    -90774.71    246.99606    20724       226049    47.158162   -66.038712    183.43611    24.077092    433.73212    23.511899    22.166304    1.1715384    434.90366   -4677.4907 
   34100   -100952.86   -90825.336    245.93374    20724    225909.87    -54.53623   -166.22484   -132.10862    134.72477    433.61504    23.507836    22.162473    1.2300796    434.84512   -4626.5623 
   34200   -101085.29   -90862.869    248.23817    20724    226043.59    61.104769    156.32976    134.58833   -107.60378    433.47353     23.51863     22.17265    1.3008335    434.77437   -4594.8828 
   34300   -100925.81   -90831.766    245.12065    20724     225880.2    111.03337    322.43119   -105.37004    116.03895    433.45017    23.510762    22.165232    1.3125128    434.76269   -4633.4745 
   34400   -101025.97   -90775.073    248.92963    20724    226243.19   -123.89845    49.891927   -249.72189   -171.86539    433.65999    23.523953    22.177667    1.2076037     434.8676   -4672.5516 
   34500   -101010.33   -90772.227    248.61899    20724    225930.23    38.891079    49.998671    371.60647    -304.9319    433.49752    23.512081    22.166476    1.2888388    434.78636   -4692.6268 
   34600   -101026.15   -90789.535    248.58275    20724    225924.38   -68.322972   -141.59699    111.06144   -174.43337    433.50788    23.511496    22.165924    1.2836594    434.79154   -4672.3016 
   34700   -100950.31   -90777.436    247.03492    20724    225879.52    -23.94623   -114.95277    119.26233   -76.148255    433.53971    23.508299    22.162909    1.2677435    434.80746   -4687.4469 
   34800   -101048.89   -90779.582    249.37676    20724    225998.86   -65.643456    -143.9638   -469.74871    416.78215    433.45494    23.516807    22.170931    1.3101288    434.76507   -4680.2678 
   34900    -100949.4    -90752.95    247.60755    20724     225923.5    40.305838     57.07002    152.41565   -88.568156    433.58162    23.509451    22.163996    1.2467895    434.82841    -4715.709 
   35000    -100945.7   -90764.826    247.22919    20724    225805.76    68.754095    371.58791   -159.79097   -5.5346537    433.69274    23.500313    22.155381    1.1912282    434.88397   -4710.1164 
   35100   -100854.24   -90727.378    245.91767    20724    226044.27    28.426463   -89.433052    87.575604    87.136836    434.10424    23.501574     22.15657   0.98548125    435.08972   -4737.6416 
   35200   -100859.94   -90684.687    247.09272    20724    226108.62    14.943765   -38.550738   -178.77216    262.15419    433.95949    23.508839    22.163418    1.0578541    435.01735   -4779.4408 
   35300    -101010.7   -90681.447    250.83238    20724    226182.19    16.812202   -154.45761     163.0613    41.832921     434.0061    23.511401    22.165834    1.0345522    435.04065   -4786.2915 
   35400   -100910.57   -90695.631    248.05658    20724     225979.4    33.347367    227.59166   -9.3774909   -118.17207    433.90437    23.503613    22.158492    1.0854158    434.98978   -4777.5086 
   35500   -100887.61   -90685.189    247.75245    20724    226295.95    21.664174    191.76573   -167.71797    40.944765     434.4753    23.504611    22.159432   0.79994869    435.27525    -4780.315 
   35600   -100904.99   -90685.972    248.15544    20724    226343.21    65.357349    133.25611    102.06134     -39.2454    434.36206    23.510129    22.164635   0.85657183    435.21863   -4781.5075 
   35700   -100870.79   -90634.913     248.5649    20724    226586.06    11.025459   -57.958189    280.83872   -189.80415    434.38995    23.521983     22.17581   0.84262727    435.23257   -4822.2535 
   35800   -100950.76    -90688.38     249.2085    20724    226070.45    75.418267    195.25614    100.57923   -69.580577    434.01455    23.505363    22.160142     1.030323    435.04488   -4790.9253 
   35900   -100931.19   -90624.436    250.28619    20724    226309.66   -106.37947   -243.00383   -208.54301    132.40842    434.33508    23.509116     22.16368   0.87005764    435.20514   -4838.6439 
[...]
  491300   -93534.703   -80887.207    307.12798    20724     220489.8   -85.764822   -143.89798   -160.24178    46.845301    420.67816    23.578517    22.229109    7.6985199    428.37668    -22254.03 
  491400   -93550.443   -80872.889    307.85789    20724    220830.46    88.914062    205.74035    125.83532   -64.833486    420.96123    23.588789    22.238794    7.5569845    428.51822   -22266.137 
  491500   -93599.992   -80830.384    310.09331    20724     220780.3   -72.067365     36.69929   -169.64053   -83.260852    421.14998    23.580824    22.231284    7.4626098    428.61259   -22302.921 
  491600   -93513.699   -80852.575    307.45889    20724    220651.64    42.240763   -216.53655    85.940944    257.31789    421.21928    23.572013    22.222978    7.4279614    428.64724   -22291.119 
  491700   -93671.372   -80828.391    311.87505    20724     221045.9   -16.417008   -36.234734    56.673755   -69.690046    421.43723    23.586961     22.23707    7.3189834    428.75622   -22302.451 
  491800   -93485.034    -80823.08    307.47907    20724    220813.51    47.244745    28.380796   -14.112925    127.46636    421.37535    23.576291     22.22701     7.349927    428.72527   -22319.214 
  491900   -93536.283   -80774.787     309.8963    20724    221201.26    21.934578   -133.82249    52.271009    147.35521    421.85263    23.583629    22.233929    7.1112873    428.96391   -22353.239 
  492000   -93362.038   -80779.738    305.54477    20724    221103.24   -60.056409    118.76374   -37.568624   -261.36435    422.00561    23.574129    22.224972     7.034797     429.0404   -22349.259 
  492100   -93487.426   -80767.901     308.8771    20724    220614.93    55.149268    19.256621     557.0792   -410.88802    421.62025    23.558842     22.21056    7.2274731    428.84773   -22386.733 
  492200   -93441.199   -80799.428    306.98894    20724    220612.57    53.706321    399.47366    72.486252   -310.84095    421.43809    23.563806     22.21524    7.3185549    428.75665   -22360.147 
  492300   -93639.044   -80764.831    312.63347    20724    221009.89   -22.397209    212.33674   -348.63937    69.110999     422.0792    23.567097    22.218343    6.9980012     429.0772   -22379.155 
  492400   -93641.136   -80764.057    312.70307    20724    221027.92   -96.640491   -159.39268   -58.416447   -72.112343    422.14842    23.566126    22.217427    6.9633908    429.11181   -22376.775 
  492500    -93379.43   -80734.622    307.06268    20724    220956.14   -24.208343   -108.88479    346.10649   -309.84672    422.02565    23.565726     22.21705    7.0247764    429.05042   -22411.828 
  492600   -93441.328   -80772.102    307.65566    20724    220926.63    76.075833    302.28054   -307.93037    233.87733    421.99554    23.564993    22.216359    7.0398313    429.03537   -22381.197 
  492700   -93505.072   -80735.365     310.0957    20724    220919.05    31.101573   -185.85796    134.15381    145.00887    421.89747    23.567328     22.21856     7.088865    428.98633   -22418.181 
  492800   -93399.014   -80664.883     309.2318    20724    221166.06    40.484267    166.95334   -120.02295    74.522412    422.24626    23.570758    22.221794    6.9144699    429.16073   -22478.121 
  492900   -93408.915   -80645.481    309.94337    20724    221150.02   -10.774116   -119.12007   -47.412035    134.20976    422.40537    23.565464    22.216803    6.8349153    429.24028   -22498.523 
  493000   -93447.096   -80703.034    309.47292    20724    221279.65    97.258471    13.528708    64.924877    213.32183    421.89109    23.586732    22.236854    7.0920549    428.98315   -22443.022 
  493100   -93423.778   -80740.339     308.0008    20724     220754.5   -112.93508   -266.53671    62.071303   -134.33983    421.84572    23.559994    22.211646    7.1147383    428.96046   -22417.074 
  493200   -93425.448    -80711.78    308.73485    20724    220906.49    76.504089    187.29703   -130.32107     172.5363    421.72434    23.571495    22.222488    7.1754294    428.89977   -22450.631 
  493300   -93531.378    -80740.51    310.60956    20724    220794.39    39.510932     172.0168   -16.628115   -36.855893     421.9792    23.558396    22.210139    7.0480022     429.0272   -22426.947 
  493400    -93356.93    -80723.75    306.78031    20724    220898.06    42.916373    87.209142   -14.202585    55.742561    421.70538    23.571575    22.222564    7.1849112    428.89029   -22439.841 
  493500   -93516.613   -80678.382    311.75971    20724    221236.59    39.290587    81.376388   -190.54846    227.04384    421.97165    23.582186    22.232568    7.0517736    429.02343   -22475.974 
  493600   -93552.469   -80684.642    312.47841    20724    221103.51   -16.465372    4.1089219    -2.061952   -51.443085     422.1606    23.569815    22.220905    6.9572977     429.1179   -22474.831 
  493700   -93408.663   -80642.864    310.00079    20724    220841.16   -2.3274753   -26.034732   -4.2905197    23.342825    422.35759    23.550334    22.202539    6.8588069    429.21639   -22525.648 
  493800   -93445.367   -80657.499    310.53671    20724    221024.63   -108.70211     -142.494   -118.99619   -64.616153    422.35543    23.560175    22.211817    6.8598859    429.21531   -22503.359 
  493900   -93554.286   -80703.929    312.05416    20724    221364.96   -69.520827     34.11317   -18.335973   -224.33968    422.32516    23.579152    22.229707    6.8750205    429.20018   -22447.531 
  494000   -93365.228   -80710.867    307.29467    20724    221473.08   -11.966434   -192.47085    121.17913    35.392417    422.54693    23.578719    22.229299    6.7641336    429.31107   -22439.749 
  494100   -93498.744   -80735.215    309.94567    20724     221610.9    83.790721   -16.254802   -226.43093    494.05789     422.2157    23.595304    22.244935    6.9297478    429.14545   -22419.504 
  494200   -93469.619   -80754.225    308.77677    20724    221270.62    26.172888    210.18813   -116.10182    -15.56765    422.17546    23.578306     22.22891    6.9498715    429.12533   -22411.342 
  494300   -93547.855   -80747.942    310.82921    20724    221525.13   -108.73874   -146.87823    -62.73321   -116.60478    422.78312    23.574902    22.225701    6.6460404    429.42916   -22405.573 
  494400   -93490.665   -80724.215    310.01661    20724    221403.19    17.294314    143.15001    -100.9426    9.6755256    422.62265    23.572887    22.223801    6.7262761    429.34892    -22440.94 
  494500   -93616.401   -80728.111    312.97535    20724    221190.49   -143.38346   -66.986261    64.878285   -428.04241    422.85312    23.555139    22.207069    6.6110398    429.46416    -22438.84 
  494600   -93487.421   -80768.088    308.87244    20724    221534.34   -46.327585   -166.65512    38.614747   -10.942388    423.12533    23.565857    22.217173    6.4749351    429.60026   -22391.084 
  494700   -93481.123   -80754.193    309.05692    20724    221520.51   -117.78839   -239.52044    2.0532883   -115.89802    422.91569    23.570961    22.221985     6.579753    429.49545   -22404.038 
  494800   -93395.908   -80745.777    307.19195    20724    221355.65    57.620116   -2.5370998   -85.985297    261.38274    422.89395    23.562794    22.214286    6.5906271    429.48457   -22427.474 
  494900    -93443.82   -80737.107    308.56598    20724    221250.96    62.800985    234.29703    -98.12703    52.232953    423.08066    23.552023    22.204131    6.4972722    429.57793   -22442.114 
  495000   -93513.481   -80687.501     311.4622    20724    221305.14   -38.400389    23.945098   -23.069213   -116.07705    422.99991    23.557154    22.208969    6.5376438    429.53756   -22488.658 
  495100   -93473.896   -80690.263    310.43388    20724    221084.22   -64.109145    44.914402   -56.004253   -181.23758    422.75463    23.552223     22.20432     6.660283    429.41492   -22493.947 
  495200   -93572.554     -80711.8    312.30666    20724    221230.98   -61.353222   -215.73841    53.553187    -21.87444    422.84723    23.557459    22.209256    6.6139842    429.46122   -22470.683 
  495300   -93325.533    -80680.29    307.07323    20724    221149.67    79.155361    -65.10073    232.11415    70.452662    422.38391    23.566044     22.21735    6.8456452    429.22955   -22510.214 
  495400   -93330.492   -80624.366    308.55172    20724    221878.34    61.949872    99.564559   -79.413439     165.6985    423.30056    23.579264    22.229813    6.3873178    429.68788   -22540.771 
  495500   -93433.717   -80630.099    310.91917    20724    221827.55   -58.429389   -60.590359    142.76949   -257.46729     423.0472    23.583624    22.233924    6.5139999     429.5612   -22535.381 
  495600   -93375.258   -80673.028    308.45712    20724    221148.82    46.268981    152.03247   -152.70258    139.47705    422.39466    23.565698    22.217024    6.8402686    429.23493   -22523.709 
  495700   -93479.899    -80677.95    310.87867    20724    221648.93  0.068663117    6.4534506   -97.364527    91.117065    422.51321     23.58902    22.239011    6.7809963     429.2942   -22501.043 
  495800   -93482.534   -80704.286    310.30309    20724    221363.43    15.259853   -254.75743    26.129135    274.40785    422.60853    23.571164    22.222177    6.7333367    429.34186   -22486.439 
  495900   -93415.772   -80637.569    310.30202    20724    221720.67    144.57275    125.14387    242.19115    66.383237     422.8216    23.584231    22.234496    6.6268017     429.4484    -22545.97 
  496000   -93561.341   -80675.933    312.90534    20724    221629.77   -152.89195    31.434906    -277.2179   -212.89286    422.48349     23.58883    22.238831     6.795853    429.27935   -22502.784 
  496100   -93451.962   -80712.181    309.36898    20724    221511.56   -25.607797   -83.149623    141.41862   -135.09239    422.58663     23.57966    22.230186     6.744283    429.33092   -22477.974 
  496200   -93282.275   -80696.948    305.61826    20724    221645.55    142.97806     278.2061    47.571234    103.15684    422.73752     23.58258     22.23294    6.6688409    429.40636   -22497.659 
  496300   -93412.175    -80649.84    309.91668    20724    221768.86   -90.513042   -266.03575   -38.729908    33.226534    422.83771    23.586345    22.236489    6.6187467    429.45645   -22530.984 
  496400    -93374.29   -80660.563     308.7363    20724    221487.86    37.380188    32.777996   -152.27093     231.6335    422.65534    23.576482     22.22719    6.7099286    429.36527   -22541.208 
  496500   -93392.412   -80660.053    309.18874    20724    221718.45     41.42516   0.81069906     224.1978   -100.73302    422.87987    23.582488    22.232853    6.5976632    429.47754   -22531.996 
  496600   -93461.865    -80662.67    310.81178    20724    221507.06   -15.422181    40.748978   -9.0317085   -77.983811    423.03411    23.566946      22.2182    6.5205455    429.55465   -22537.457 
  496700   -93522.506   -80646.637    312.67371    20724    221939.54   -48.082437   -82.075696   -134.14036    71.968747    423.48356     23.57742    22.228075    6.2958182    429.77938   -22538.052 
  496800   -93412.241   -80638.763    310.18727    20724    221748.44   -35.699042    125.66167   -150.73282   -82.025971     423.3264    23.571641    22.222627    6.3743988     429.7008   -22553.587 
  496900   -93592.076   -80673.026    313.72229    20724    221658.72   -174.18254   -175.29933      67.4583   -414.70658    423.27091    23.568417    22.219587    6.4021444    429.67306   -22519.939 
  497000   -93546.947   -80647.445     313.2476    20724     221682.5   -260.19655   -114.32967   -342.72368   -323.53628    423.48752    23.563653    22.215095    6.2938415    429.78136   -22542.474 
  497100   -93364.953   -80642.915    308.93812    20724    221526.74   -12.732031   -60.982942   -101.48609    124.27294    423.43461    23.556845    22.208677    6.3202969     429.7549   -22566.128 
  497200   -93218.762   -80654.997    305.09465    20724    221458.82      19.3732   -82.990167     283.5704   -142.46063    423.35285    23.555507    22.207416    6.3611751    429.71402   -22559.288 
  497300   -93506.173   -80656.809    312.03007    20724    221505.01   -169.55428   -251.15512   -152.25746   -105.25027    423.45805    23.555037    22.206973    6.3085731    429.76663   -22550.628 
  497400   -93502.711   -80698.295    310.93857    20724    221474.67    14.703894    249.47681   -317.44149    112.07636    423.69119    23.546943    22.199342    6.1920036     429.8832   -22520.865 
  497500   -93457.108   -80697.093    309.86033    20724    221642.17    49.238996    283.90238    151.95829   -288.14367    423.75279    23.554133    22.206121    6.1612031      429.914   -22518.219 
  497600   -93398.509   -80661.971    309.29023    20724    221523.92   -112.33427   -253.09464    -64.04136   -19.866798    423.57619    23.552757    22.204824    6.2495044     429.8257   -22552.673 
  497700   -93439.468   -80686.273    309.69473    20724    221615.17   -10.949207   -51.120416    41.503658   -23.230863    423.41519    23.562086    22.213619    6.3300025     429.7452   -22531.214 
  497800   -93520.009   -80682.793    311.73506    20724    221503.31   -31.944993   -19.395508   -140.01809    63.578619    423.11183    23.564582    22.215972    6.4816873    429.59351   -22542.566 
  497900   -93476.616   -80695.078      310.383    20724    221581.54    45.853764    8.4839336   -184.06755    313.14491    422.75222    23.578765    22.229343    6.6614878    429.41371   -22531.044 
  498000   -93443.402   -80654.742    310.55594    20724    221167.16   -24.525743   -44.120577   -107.66341    78.206758    422.10761    23.574687    22.225499    6.9837958     429.0914   -22585.657 
  498100   -93297.623   -80621.217    307.83001    20724    221573.59   -8.6869202   -137.72542    165.78467   -54.120014    422.66014     23.58091    22.231365    6.7075287    429.36767   -22605.715 
  498200   -93455.013   -80577.686    312.70911    20724    221623.99    15.784025    52.915038    119.51282   -125.07579    422.75813    23.580859    22.231317    6.6585354    429.41666   -22651.107 
  498300   -93323.889   -80535.504    310.54928    20724    221658.33    28.824316   -119.74344    145.13887    61.077519    422.73143     23.58343    22.233741     6.671883    429.40332    -22694.06 
  498400   -93437.972   -80593.235    311.91771    20724    221509.21    32.527258   -8.2973111    122.18666   -16.307573    422.58993    23.579443    22.229982    6.7426368    429.33256   -22643.365 
  498500   -93140.493   -80586.137    304.86617    20724    221669.24     173.4582    15.062493    341.16148    164.15061    422.44748    23.591935    22.241759     6.813862    429.26134   -22653.178 
  498600   -93381.986   -80571.727    311.08045    20724    221677.45     14.83521   -204.86264    -30.79093    280.15921    422.43851    23.592623    22.242407    6.8183451    429.25685   -22661.725 
  498700   -93424.734   -80621.857    310.90118    20724    221243.14    8.2196931   -44.845358    309.89491   -240.39047    422.43617    23.569565     22.22067    6.8195136    429.25569   -22633.037 
  498800   -93387.183   -80664.611    308.95108    20724    221434.94    37.549513    217.97291    17.289002   -122.61337    422.51082    23.577697    22.228336    6.7821913    429.29301   -22587.252 
  498900   -93462.665   -80666.849    310.72971    20724    221407.47    82.802062    11.935471    233.76695     2.703761    422.44999    23.577931    22.228557    6.8126034     429.2626   -22589.979 
  499000    -93395.19   -80630.209    309.98092    20724    221701.46    53.305564    183.34035    39.202281   -62.625944    422.53797    23.591123    22.240994    6.7686127    429.30659   -22615.401 
  499100   -93292.924   -80628.657    307.53523    20724    221696.44    48.614416    193.54875   -183.27922    135.57371    422.66525    23.587304    22.237393    6.7049752    429.37022    -22619.32 
  499200   -93334.392   -80645.861    308.12445    20724    221502.85    4.1378913   -28.938913   -164.71358    206.06617    422.45378    23.582903    22.233244    6.8107089    429.26449   -22607.916 
  499300   -93374.242   -80643.563    309.14795    20724    221500.55    50.347989    180.82232    224.02124    -253.7996    422.67209     23.57669    22.227386    6.7015569    429.37364   -22613.466 
  499400   -93560.051    -80650.07    313.50205    20724    221484.78   -34.842751    95.179954   -94.929777   -104.77843     422.7318    23.574185    22.225025    6.6717001     429.4035   -22608.252 
  499500   -93377.683   -80614.331    309.94139    20724     221772.2    66.740971    125.13134   -79.529704    154.62127     422.9461      23.5835    22.233807     6.564551    429.51065   -22637.102 
  499600    -93407.29   -80669.306    309.32535    20724    221193.27    1.2294782   -9.4548761    18.720512   -5.5772009    422.62642    23.561604    22.213164     6.724389    429.35081   -22602.903 
  499700   -93338.015   -80674.817    307.50926    20724    220924.62   -10.433007   -35.963116    43.002145    -38.33805    422.48119    23.551338    22.203486    6.7970075    429.27819   -22607.397 
  499800   -93378.707   -80650.117    309.09723    20724    220831.78   -53.003414   -131.59507   -78.082443    50.667274    422.11892    23.556491    22.208343    6.9781393    429.09706   -22636.943 
  499900   -93305.326   -80613.837    308.19628    20724    221155.44    69.250732   -81.861923     243.8862    45.727921    421.88738    23.580215     22.23071    7.0939111    428.98129    -22666.27 
  500000   -93416.112   -80644.283    310.14721    20724    221141.28   -14.523431    170.03772    114.36253   -327.97054    422.02764    23.575541    22.226304    7.0237775    429.05142   -22635.322 
Loop time of 50939.4 on 32 procs for 500000 steps with 20724 atoms

Performance: 1.696 ns/day, 14.150 hours/ns, 9.816 timesteps/s
97.3% CPU use with 32 MPI tasks x no OpenMP threads

MPI task timing breakdown:
Section |  min time  |  avg time  |  max time  |%varavg| %total
---------------------------------------------------------------
Pair    | 6275.2     | 9000.2     | 12260      |2377.5 | 17.67
Bond    | 0.34571    | 0.48289    | 0.59144    |   9.3 |  0.00
Kspace  | 8579.8     | 11857      | 14600      |2086.1 | 23.28
Neigh   | 8116.2     | 9770.3     | 11450      |1167.0 | 19.18
Comm    | 374.99     | 3750.9     | 7000.5     |4241.8 |  7.36
Output  | 5.1987     | 42.591     | 70.66      | 375.2 |  0.08
Modify  | 12978      | 16476      | 21134      |2378.9 | 32.34
Other   |            | 41.78      |            |       |  0.08

Nlocal:    647.625 ave 717 max 594 min
Histogram: 1 4 4 11 0 4 2 2 2 2
Nghost:    7416.81 ave 7921 max 7012 min
Histogram: 4 4 7 3 0 2 3 3 4 2
Neighs:    238177 ave 284877 max 208869 min
Histogram: 1 9 8 2 0 3 3 3 1 2
FullNghs:  476357 ave 567648 max 420864 min
Histogram: 3 9 7 1 1 2 4 2 1 2

Total # of neighbors = 15243418
Ave neighs/atom = 735.544
Ave special neighs/atom = 2
Neighbor list builds = 500000
Dangerous builds not checked
write_data production.R1
PPPM initialization ...
  extracting TIP4P info from pair style
WARNING: Using 12-bit tables for long-range coulomb (../kspace.cpp:316)
  G vector (1/distance) = 0.345919
  grid = 400 48 48
  stencil order = 5
  estimated absolute RMS force accuracy = 0.000401461
  estimated relative force accuracy = 1.20899e-06
  using double precision FFTs
  3d grid and FFT values/proc = 67260 38400
write_restart restartproduction.R1
PPPM initialization ...
  extracting TIP4P info from pair style
WARNING: Using 12-bit tables for long-range coulomb (../kspace.cpp:316)
  G vector (1/distance) = 0.345919
  grid = 400 48 48
  stencil order = 5
  estimated absolute RMS force accuracy = 0.000401461
  estimated relative force accuracy = 1.20899e-06
  using double precision FFTs
  3d grid and FFT values/proc = 67260 38400
Total wall time: 14:09:00
