LAMMPS (30 Jul 2016)
# Sets up LAMMPS simulation for transient melting of ice: TIP4P/Ice
# Ensure cold thermostats do not move
# Thinbox: 16x1x1
# Defects
# Order param l=2

#### setting MD parameters ####
units real
boundary p p p
atom_style full

# read ice box in restart file
### read the equilibrated NPT restart file

read_restart restart.state
  orthogonal box = (0.390282 0.0210601 0.0198548) to (435.685 23.5101 22.1646)
  32 by 1 by 1 MPI processor grid
  20736 atoms
  13824 bonds
  6912 angles
  2 = max # of 1-2 neighbors
  1 = max # of 1-3 neighbors
  1 = max # of 1-4 neighbors
  2 = max # of special neighbors


#### force field definition ####
pair_style      lj/cut/tip4p/long 2 1 1 1 0.1577 10.0
pair_modify	tail yes

kspace_style	pppm/tip4p 1.0e-6

bond_style	harmonic
angle_style	harmonic
dihedral_style	none
improper_style	none

bond_coeff	1 450.0 0.9572
angle_coeff	1 55.0 104.52


# reset pair coeff
pair_coeff	* * 0.0 0.0

#OO
pair_coeff	2 2 0.21085 3.1668
#OH
pair_coeff	* 1 0.0000 0.0000

neighbor        2.0 bin
neigh_modify    every 1 delay 1 check no

timestep	2.0
fix		constraints all shake 0.000001 20 0 b 1 a 1
  0 = # of size 2 clusters
  0 = # of size 3 clusters
  0 = # of size 4 clusters
  6912 = # of frozen angles

group water type 1 2
20736 atoms in group water

#*********** SIMULATION PARAMETER TO ADJUST ****************
#Box dimensions
variable lx equal lx
variable ly equal ly
variable lz equal lz

### Temperature of the hot and cold regions ####
variable thi equal 375
variable tlo equal 215
variable runpressure equal 0.986923


# Configuration equilibrated in density and temperature

# Define dx here

variable lx equal lx
variable ly equal ly
variable lz equal lz

variable xlo equal xlo
variable xhi equal xhi

variable boxcentre equal ${xlo}+(${xhi}-${xlo})/2
variable boxcentre equal 0.390281517322347+(${xhi}-${xlo})/2
variable boxcentre equal 0.390281517322347+(435.68491848268-${xlo})/2
variable boxcentre equal 0.390281517322347+(435.68491848268-0.390281517322347)/2

variable dx equal 2.0

#### ADD IN DEFECTS AT THE CENTRE OF THE HOT THERMOSTAT #####
variable y1 equal ${ly}/2.0
variable y1 equal 23.4890797765135/2.0
variable z1 equal ${lz}/2.0
variable z1 equal 22.1447903337724/2.0

region kill1 sphere ${boxcentre} ${y1} ${z1} 3
region kill1 sphere 218.037600000001 ${y1} ${z1} 3
region kill1 sphere 218.037600000001 11.7445398882567 ${z1} 3
region kill1 sphere 218.037600000001 11.7445398882567 11.0723951668862 3
delete_atoms region kill1 compress no bond yes mol yes
Deleted 12 atoms, new total = 20724
Deleted 8 bonds, new total = 13816
Deleted 4 angles, new total = 6908
############


variable thip equal ${thi}*2.0/3.0
variable thip equal 375*2.0/3.0
variable tlop equal ${tlo}*2.0/3.0
variable tlop equal 215*2.0/3.0
variable hbl equal ${boxcentre}-${dx}
variable hbl equal 218.037600000001-${dx}
variable hbl equal 218.037600000001-2
variable hbh equal ${boxcentre}+${dx}
variable hbh equal 218.037600000001+${dx}
variable hbh equal 218.037600000001+2

#***************************************************
## EQUILIBRATION PERIOD - to reach the steady state ###
#run 0

#reset the timestep to start your production run
reset_timestep 0

# define a group to perform averages
#group s1 type 1
###*** SYSTEM THERMOSTATTING: HOT and COLD regions ***###

fix NVE all nve
fix PRESS all press/berendsen aniso ${runpressure} ${runpressure} 500000 couple yz
fix PRESS all press/berendsen aniso 0.986923 ${runpressure} 500000 couple yz
fix PRESS all press/berendsen aniso 0.986923 0.986923 500000 couple yz


### Apply THERMOSTATS ###

#set up the "hot region" in the middle of the box
region hot block ${hbl} ${hbh} 0 ${ly} 0 ${lz} units box
region hot block 216.037600000001 ${hbh} 0 ${ly} 0 ${lz} units box
region hot block 216.037600000001 220.037600000001 0 ${ly} 0 ${lz} units box
region hot block 216.037600000001 220.037600000001 0 23.4890797765135 0 ${lz} units box
region hot block 216.037600000001 220.037600000001 0 23.4890797765135 0 22.1447903337724 units box


#set up the "cold region" at the left end of the box
#region cold block ${cbl} ${cbh} 0 ${ly} 0 ${lz} units box

#set up the "cold region" at the right end of the box
#region cold2 block ${h2bl} ${xhi} 0 ${ly} 0 ${lz} units box


#Cold regions  unification
#region cold union 2 cold1 cold2 units box

#Create group of cold molecules
####group cool_ice region cold
####group cool_ice include molecule

####compute cold_temp cool_ice temp
####fix cold_rescale water temp/rescale 1 ${tlo} ${tlo} 0.0001 1.0
####fix_modify cold_rescale temp cold_temp

#this calculates the temperature using only the atoms in the "hot region"
#compute hot_temp all temp/region hot

# calculate the temperature using only WATER in the "hot region"
compute hot_temp water temp/region hot

#this calculates the temperature using only WATER in the "cold region"
#compute cold_temp water temp/region cold


#set up a basic velocity rescale for the hot region WATER with thip
fix hot_rescale water temp/rescale 1 ${thip} ${thip} 1.0 1.0
fix hot_rescale water temp/rescale 1 250 ${thip} 1.0 1.0
fix hot_rescale water temp/rescale 1 250 250 1.0 1.0
#change the thermostat to only act on the "hot region"
#this is done by passing it the "hot temp" compute that we defined above
fix_modify hot_rescale temp hot_temp

#set up a basic velocity rescale for the cold region
#fix cold_rescale water temp/rescale 1 ${tlop} ${tlop} 1.0 1.0
#change the thermostat to only act on the "cold region"
#this is done by passing it the "cold temp" compute that we defined above
#fix_modify cold_rescale temp cold_temp

### Ensure MOMENTUM CONSERVATION ###

#ensure that linear momentum is conserved despite the "thermostatting" by velocity rescaling
fix cons_mom all momentum 1 linear 1 1 1


thermo 100
thermo_style custom step pe etotal temp atoms vol press pxx pyy pzz lx ly lz xlo xhi  f_hot_rescale

group ox type 2
6908 atoms in group ox
group hy type 1
13816 atoms in group hy
compute KE all ke/atom
variable TEMP atom c_KE*4186.8/(1.3806488*6.02214129)

compute cc1 all chunk/atom bin/1d x center 2 units box
#fix TPROFILE all ave/chunk 1 500 500 cc1 v_TEMP density/number file temp.dat
fix TPROFILEox ox ave/chunk 1 500 500 cc1 v_TEMP density/number file temp-ox.dat
fix TPROFILEhy hy ave/chunk 1 500 500 cc1 v_TEMP density/number file temp-hy.dat

compute orderparam ox orientorder/atom degrees 1 2 nnn 4 cutoff 3.5
compute cc2 ox chunk/atom bin/1d x center 2 units box
#fix ORDERPARAM all ave/chunk 1 500 500 cc2 c_orderparam[1] file order-param.dat
fix ORDERPARAM all ave/chunk 1 500 500 cc2 c_orderparam[1] file order-param.dat

restart 50000 config.restart

run 500000
PPPM initialization ...
  extracting TIP4P info from pair style
WARNING: Using 12-bit tables for long-range coulomb (../kspace.cpp:316)
  G vector (1/distance) = 0.345589
  grid = 405 48 48
  stencil order = 5
  estimated absolute RMS force accuracy = 0.00040619
  estimated relative force accuracy = 1.22323e-06
  using double precision FFTs
  3d grid and FFT values/proc = 67260 38880
Neighbor list info ...
  2 neighbor list requests
  update every 1 steps, delay 1 steps, check no
  max neighbors/atom: 2000, page size: 100000
  master list distance cutoff = 12.3154
  ghost atom cutoff = 12.3154
  binsize = 6.1577 -> bins = 71 4 4
Memory usage per processor = 12.7901 Mbytes
Step PotEng TotEng Temp Atoms Volume Press Pxx Pyy Pzz Lx Ly Lz Xlo Xhi hot_resc 
       0   -103723.76   -94893.389     214.4341    20724    226423.18   -83.343138   -210.40757   -116.06443     76.44258    435.29464     23.48908     22.14479   0.39028152    435.68492            0 
     100   -103647.59   -94651.988    218.44637    20724    226424.28    3.0473282    -101.2131   -179.67587    290.03096    435.20244    23.491625     22.14719   0.43638124    435.63882   -242.79304 
     200   -103650.84   -94591.461    219.99515    20724    226441.87    18.903155   -26.469181   -76.358056     159.5367    435.18308     23.49306    22.148542   0.44605775    435.62914   -306.10018 
     300   -103585.37   -94540.206    219.65002    20724    226401.07    4.7416304    9.4872146   -122.35741    127.09509    435.29934    23.487806     22.14359   0.38793187    435.68727   -356.52109 
     400   -103585.56   -94465.858    221.46002    20724     226457.8   -91.572668   -162.46225    282.64559   -394.90135    435.12444    23.495469    22.150814   0.47537946    435.59982   -425.40237 
     500   -103541.58   -94458.212    220.57773    20724    226408.17   -9.1098581    41.720677    8.2296209   -77.279872    435.13227    23.492683    22.148187   0.47146514    435.60373   -439.41683 
     600    -103487.7    -94395.34    220.79618    20724    226546.27     49.00213    187.65855   -129.40636    88.754197     435.2518     23.49662    22.151899   0.41170101     435.6635   -500.33143 
     700    -103408.7   -94341.386    220.18801    20724    226600.59    5.4330725    -226.4843     95.50849    147.27503    435.46619    23.493651      22.1491   0.30450393     435.7707    -552.9101 
     800   -103414.68   -94266.287    222.15682    20724    226633.44    42.159472    130.32449    39.710592   -43.556666     435.3323    23.498967    22.154111   0.37144866    435.70375   -631.66836 
     900   -103444.52   -94279.376    222.56356    20724    226735.15    19.816444   -41.479735   -89.543114    190.47218    435.43297    23.501522     22.15652   0.32111349    435.75409   -614.72241 
    1000   -103276.63    -94259.12    218.97858    20724    226499.69    79.721137    12.044543    119.10166    108.01721    435.24789    23.494309    22.149721    0.4136568    435.66154   -641.37755 
    1100   -103343.42     -94200.9    222.01425    20724    226706.75    54.100509      181.534     40.75141   -59.983885    435.42617    23.500234    22.155306   0.32451357    435.75069   -697.68112 
    1200   -103374.79    -94190.63     223.0253    20724     226468.1   -66.370348   -182.32719   -142.86827    126.08441    435.29313     23.49145    22.147025   0.39103359    435.68417   -707.93652 
    1300   -103456.64   -94175.839    225.37224    20724    226549.34   -53.915024   -121.98164   -78.137838    38.374407    435.49433    23.490235     22.14588   0.29043698    435.78476   -724.96237 
    1400   -103294.21   -94131.821    222.49675    20724    226569.62    11.600074    48.364294   -42.294965    28.730893    435.30211    23.496472     22.15176   0.38654305    435.68866   -769.81651 
    1500   -103363.32   -94116.738    224.54131    20724    226620.07   -2.6746125   -113.21624   -129.85603    235.04844    435.32656    23.498428    22.153604   0.37431907    435.70088    -784.6832 
    1600   -103346.54   -94042.046    225.94745    20724     226559.6   -69.303941   -122.02994    -218.9684    133.08651    435.22589     23.49801     22.15321    0.4246534    435.65055   -858.25727 
    1700   -103337.18   -94039.206    225.78924    20724    226612.61    -18.65913   -156.89468    112.61942   -11.702133    435.37689    23.496683    22.151959   0.34915713    435.72604   -862.73518 
    1800   -103303.03   -94037.813    224.99382    20724    226576.83    10.622279   -94.811599    413.36726   -286.68883    435.40799    23.493989    22.149419   0.33360326     435.7416   -866.08506 
    1900   -103296.52   -94006.193    225.60358    20724    226614.66   -29.383187   0.45866772     120.2787   -208.88693    435.36761     23.49704    22.152295   0.35379256    435.72141   -896.93356 
    2000   -103239.71   -93959.874    225.34875    20724    226481.18   -42.115395   -38.781955   -3.1530938   -84.411136    435.20673     23.49446    22.149863   0.43423648    435.64096   -945.53881 
    2100    -103235.2   -93930.265    225.95831    20724    226502.77   -92.866181   -127.79247    83.488891   -234.29496    435.15216    23.497053    22.152308   0.46151827    435.61368   -973.19567 
    2200      -103203   -93924.207    225.32338    20724    226609.05   -25.896512   -76.149224    44.530562   -46.070876    435.42326    23.495248    22.150605   0.32597122    435.74923   -981.04052 
    2300   -103226.71   -93885.382     226.8419    20724    226594.75   -1.5366608     24.71164   -71.036166    41.714544      435.216      23.5001     22.15518    0.4296017     435.6456   -1024.1342 
    2400   -103173.17   -93881.842    225.62778    20724    226600.82    60.888177    106.22519   -2.7318331     79.17117    435.26175     23.49918    22.154312   0.40672443    435.66848   -1029.1658 
    2500   -103266.84   -93876.105    228.04187    20724    226556.68   -74.055117   -154.58415    43.941955   -111.52316    435.29417    23.496016    22.151329   0.39051422    435.68469   -1033.1789 
    2600   -103200.49   -93819.101     227.8148    20724    226638.03   -9.4493815    11.747901    22.251453   -62.347499    435.35658     23.49855    22.153718   0.35930972    435.71589   -1090.6419 
    2700   -103103.58   -93806.429     225.7691    20724    226645.53    39.949322    16.894783    81.922885    21.030298    435.38209    23.498249    22.153435   0.34655273    435.72865    -1105.068 
    2800   -103151.91    -93788.23    227.38471    20724    226692.69   -90.964633   -56.241797   -16.843004    -199.8091    435.43125    23.499367    22.154489   0.32197397    435.75323   -1117.1756 
    2900   -103108.12   -93775.755    226.62444    20724    226615.94   -40.103845   -7.5855795    247.44229   -360.16824    435.13382    23.503418    22.158308   0.47068996    435.60451   -1132.7695 
    3000   -103118.55   -93780.724    226.75704    20724    226546.97    28.397911    45.974304    126.83165    -87.61222    435.27824    23.495942     22.15126   0.39848077    435.67672    -1135.375 
    3100   -103057.48   -93734.677    226.39204    20724    226595.05   -41.958475    -46.49864    86.936652   -166.31344    435.51017    23.492178    22.147711   0.28251474    435.79269   -1177.2911 
    3200   -103077.95   -93762.627    226.21057    20724    226654.01    9.3649363   -2.9746362   -264.49893    295.56837    435.30868     23.50067    22.155718   0.38325923    435.69194   -1148.7466 
    3300   -103017.54   -93726.346    225.62457    20724    226747.81     29.10774    54.033508    38.833378   -5.5436649    435.58809    23.497993    22.153193   0.24355551    435.83164    -1186.958 
    3400   -103108.88    -93691.78    228.68196    20724    226610.44    16.675442   -34.038136    134.54451   -50.480047     435.3991    23.495971    22.151287     0.338048    435.73715   -1224.9868 
    3500   -103077.15   -93729.138     227.0043    20724    226640.48     45.16712   -22.854404    263.98673   -105.63096     435.4383    23.496471    22.151759   0.31844902    435.75675    -1187.778 
    3600   -102977.65   -93697.154    225.36471    20724    226548.67    72.090068    280.49685    -57.11437   -7.1122726    435.29399    23.495605    22.150942   0.39060317     435.6846   -1224.9219 
    3700   -103096.91   -93676.696    228.75752    20724    226717.35    33.363437    -44.18125   -15.597481    159.86904    435.29325    23.504371    22.159206   0.39097745    435.68422   -1241.3971 
    3800   -103023.07   -93658.985    227.39462    20724     226579.2   -105.86431   -17.585966   -335.13059    35.123617    435.12536    23.501741    22.156727   0.47491837    435.60028   -1257.5487 
    3900   -103074.97   -93601.201     230.0581    20724    226639.22  -0.66168426   -126.38035   -14.255054    138.65035    435.43813    23.496411    22.151702    0.3185326    435.75667   -1319.3161 
    4000   -102954.96   -93589.246    227.43426    20724    226588.62   -4.2782674   -217.04995    269.71294   -65.497796    435.07026    23.503718    22.158591   0.50246865    435.57273    -1333.035 
    4100   -102954.76   -93572.504    227.83598    20724    226685.57   -39.548283   -110.89481    125.34361   -133.09365    435.25756    23.503687    22.158561   0.40881888    435.66638   -1345.3893 
    4200   -102963.29   -93537.013     228.9049    20724    226705.33   -19.461783    73.776723   -319.88327     187.7212    435.40107    23.500838    22.155875   0.33706748    435.73813   -1382.7427 
    4300   -102935.32   -93531.701    228.35474    20724    226640.01   -60.850253    76.629024   -272.50162    13.321842    435.32498    23.499505    22.154619   0.37511007    435.70009   -1388.8478 
    4400   -102876.19   -93484.393    228.06757    20724    226646.71    -59.38143   -104.88054    -143.3975    70.133749    435.40857    23.497596    22.152819   0.33331637    435.74188    -1435.271 
    4500   -102913.42   -93509.632    228.35879    20724    226463.13   -4.1095024    75.777401    32.166131   -120.27204    435.10387    23.496301    22.151598   0.48566405    435.58954   -1420.3629 
    4600   -102857.81   -93473.939    227.87506    20724    226751.55    30.499726    -65.09885    48.099974    108.49805    435.19083    23.508909    22.163485   0.44218428    435.63302   -1449.0267 
    4700   -102895.44   -93508.438    227.95121    20724    226443.65    84.315117    131.33951   0.46009621    121.14575    435.10726    23.495198    22.150559   0.48396837    435.59123   -1428.7607 
    4800    -102968.5   -93459.286    230.91875    20724    226762.21   -55.632638   -80.760211    3.8430928   -89.980797    435.47941    23.501671    22.156661   0.29789295    435.77731   -1463.3235 
    4900   -102914.23    -93472.43    229.28186    20724    226730.05   -7.6536083    74.704783    193.29804   -290.96364    435.35294    23.503418    22.158308   0.36112984    435.71407   -1454.8982 
    5000   -102912.41   -93487.958    228.86052    20724    226692.71   -27.744462   -86.304404   -49.396038    52.467055    435.32471    23.502244    22.157201   0.37524664    435.69995   -1440.4998 
    5100   -102898.52    -93465.78    229.06181    20724    226587.75    37.332665    238.68013    137.42914   -264.11128    435.15802    23.501303    22.156314   0.45859133    435.61661   -1469.5206 
    5200   -102912.96   -93440.624    230.02324    20724    226587.99    34.714521   -27.718418    7.2743627    124.58762    435.29697    23.497564    22.152789   0.38911587    435.68608   -1494.6242 
    5300   -102865.31   -93448.469     228.6758    20724    226548.23   -50.181778   -40.808067   -41.087436    -68.64983    435.26773    23.496291    22.151589   0.40373389    435.67147   -1484.1646 
    5400    -102823.9   -93409.628    228.61339    20724    226849.73    17.361576     -157.525    75.830177    133.77955    435.46383    23.506627    22.161333    0.3056871    435.76951   -1519.0013 
    5500   -102773.12    -93359.43    228.59916    20724    226694.04   -15.320036    60.839628    90.640822   -197.44056    435.44013    23.499198     22.15433   0.31753336    435.75767   -1573.6971 
    5600   -102891.07   -93348.602     231.7265    20724     226766.3   -74.170685    41.970579   -300.67214    36.189502    435.69945    23.495948    22.151265     0.187876    435.88732   -1580.9239 
    5700   -102879.78   -93366.334    231.02167    20724    226745.02   -10.015411   -148.43757    102.65856    15.732773    435.52325    23.499597    22.154706    0.2759735    435.79923   -1570.0615 
    5800   -102826.02   -93329.049    230.62159    20724    226720.85   -13.018348    56.459836    98.095385   -193.61027    435.18514    23.507472     22.16213   0.44503181    435.63017   -1606.6982 
    5900    -102842.9   -93333.441    230.92484    20724    226715.67     24.53443   -59.849943    19.696798    113.75643    435.41751     23.50093    22.155962   0.32884434    435.74636   -1604.3998 
    6000   -102852.07   -93322.596     231.4108    20724    226735.41   -81.929328   -88.926794   -21.791312   -135.06988    435.29873    23.505159    22.159949   0.38823465    435.68697   -1612.0725 
    6100   -102886.53   -93329.639    232.07652    20724    226746.37   -29.538269   -304.48148    179.46818    36.398498    435.42983    23.502188    22.157149   0.32268687    435.75251   -1608.1038 
    6200   -102855.01   -93360.506    230.56162    20724    226593.63   -70.575338   -159.07763   -290.24796    237.59958    435.13966    23.502103    22.157069   0.46777034    435.60743   -1582.1569 
    6300   -102808.22   -93315.135    230.52728    20724    226592.52    39.731313   -57.728839    127.75361    49.169166    435.38318    23.495472    22.150817   0.34600844    435.72919   -1632.7755 
    6400   -102789.26    -93245.55    231.75653    20724     226792.5   -10.510994   -67.453111    172.78588   -136.86575    435.38817    23.505703    22.160462   0.34351354    435.73169   -1695.6556 
    6500   -102836.55   -93299.571    231.59309    20724    226554.78    3.8883635    -96.94718    380.05769   -271.44542    435.26111    23.496809    22.152078   0.40704297    435.66816   -1651.8916 
    6600   -102833.74   -93289.587     231.7673    20724    226740.43   -24.983563     118.0705    -250.5354    57.514219    435.42934    23.501893    22.156871   0.32293055    435.75227   -1655.4936 
    6700   -102778.36    -93264.51    231.03151    20724    226635.49     37.58608    4.6519286   -30.070118    138.17643    435.21733    23.502177    22.157138   0.42893451    435.64627   -1686.3893 
    6800   -102731.06   -93231.596    230.68203    20724    226587.46    21.597112   -249.74432    296.59424    17.941407    435.07446    23.503544    22.158427   0.50037068    435.57483   -1719.9929 
    6900   -102821.24   -93221.012    233.12907    20724    226744.25    32.126819   -50.040888    153.49769   -7.0763419    435.47562    23.500843     22.15588   0.29979241    435.77541   -1728.8948 
    7000   -102747.46   -93210.135     231.6015    20724    226656.66      19.9321    -150.5126    290.57982   -80.270914    435.26187    23.502072    22.157039   0.40666684    435.66853   -1741.8694 
    7100   -102816.27   -93210.378    233.26646    20724    226727.45    30.839395   -102.95751    236.75241   -41.276717     435.2912    23.504949    22.159752   0.39199874     435.6832   -1742.2433 
    7200   -102742.31   -93184.885    232.08958    20724    226686.74   -37.734303   -190.13636    127.81836   -50.884902    435.47183    23.497964    22.153166   0.30168605    435.77351   -1766.5033 
    7300   -102812.77   -93225.955    232.80343    20724    226619.45   -15.375301   -50.072184   -58.842109     62.78839    435.24311    23.500649    22.155697   0.41604398    435.65916   -1729.1487 
    7400   -102657.01   -93168.551    230.41489    20724    226708.93    -40.36072    -107.5806   -223.79889    210.29734    435.28009    23.504289    22.159129   0.39755499    435.67765   -1781.1282 
    7500   -102835.72   -93145.487    235.31461    20724    226674.91   -19.430899   -27.716871   -68.245334    37.669509    435.60992    23.493626    22.149077   0.23264055    435.84256   -1809.8513 
    7600   -102708.28   -93159.462     231.8807    20724    226817.07     81.75343     14.34885    279.27667   -48.365234    435.38071    23.507178    22.161852   0.34724602    435.72795   -1797.3584 
    7700   -102680.77   -93129.704    231.93523    20724    226716.81    -8.527058   -60.712874    77.929283   -42.797584    435.20465    23.506735    22.161435   0.43527605    435.63992   -1828.2042 
    7800   -102660.62   -93138.299    231.23716    20724    226523.76   -23.909256    130.11965   -197.35909   -4.4883273    435.21355    23.496485    22.151771   0.43082671    435.64437   -1823.7361 
    7900    -102608.8   -93061.953    231.83275    20724    226640.32    52.885062    86.506235    31.430329    40.718623    435.24693    23.501628     22.15662   0.41413574    435.66106   -1900.7622 
    8000   -102628.58   -93060.932     232.3378    20724    226644.69   -6.7577272   -64.158971   -83.013661    126.89945    435.18694    23.503474    22.158361   0.44413074    435.63107   -1901.9427 
    8100   -102641.47   -93027.827    233.45489    20724    226622.86   -29.982745   -48.758054   -372.05344    330.86326     435.1143    23.504304    22.159143   0.48044925    435.59475     -1935.33 
    8200    -102627.4   -93064.471     232.2234    20724    226598.91   -34.540614   -26.073781   -30.431219   -47.116841    435.30131    23.498013    22.153212   0.38694612    435.68825   -1898.8889 
    8300   -102581.02   -92977.958    233.19787    20724    226737.55    16.404153    197.85833   -82.302964   -66.342905    435.36955    23.503358    22.158251   0.35282314    435.72238   -1984.8476 
    8400   -102554.88   -92923.219    233.89225    20724    226745.24    -66.78168   -99.579142    64.860013   -165.62591     435.3211    23.505064     22.15986   0.37704775    435.69815   -2038.3416 
    8500   -102543.14   -92917.307    233.75087    20724    226614.89   -15.317327   -187.29505   -192.04267    333.38574    435.27328    23.499598    22.154706   0.40096161    435.67424   -2049.5026 
    8600      -102613   -92929.621    235.14831    20724    226764.71   -3.6565631    -20.60244   -22.667014    32.299764    435.50699    23.501057    22.156082   0.28410613    435.79109   -2036.2355 
    8700   -102549.87   -92912.931    234.02048    20724    226720.82   -35.540379    91.137087   -64.356601   -133.40162    435.37908    23.502233    22.157191   0.34805759    435.72714   -2049.9278 
    8800   -102536.17   -92919.407    233.53052    20724    226747.76    62.551432   -30.917488    128.26853    90.303256    435.31095    23.505469    22.160242   0.38212359    435.69308   -2050.8471 
    8900    -102415.8   -92919.627    230.60226    20724    226583.46   -31.239896    20.896366   -111.91252   -2.7035316    435.24843    23.498639    22.153803   0.41338573    435.66181   -2049.4854 
    9000   -102477.73   -92885.641    232.93132    20724    226937.35    64.802906   -44.176009    106.25442     132.3303    435.52427    23.509534    22.164074   0.27546481    435.79974   -2082.1148 
    9100   -102510.26   -92912.129    233.07802    20724    226581.87   -85.632255   -20.475778   -112.10913   -124.31186     435.2265    23.499149    22.154283   0.42434878    435.65085   -2056.6295 
    9200   -102558.29   -92857.616    235.56822    20724    226815.86    27.740152    123.26806   -22.917449   -17.130153    435.50805    23.503678    22.158554    0.2835769    435.79162   -2112.6105 
    9300   -102491.91   -92847.286    234.20721    20724    226550.52   -2.3095469    2.4738736   -27.562682    18.160168    435.27684    23.496164    22.151469   0.39917943    435.67602   -2130.5438 
    9400   -102517.68   -92851.838    234.72233    20724    226689.74   -1.1768031    28.650741    219.93979   -252.12094    435.34164    23.501633    22.156625    0.3667812    435.70842   -2122.7384 
    9500   -102455.13   -92851.482    233.21218    20724    226748.46    33.618651   -88.544999    121.03001    68.370945    435.45495    23.501619    22.156612   0.31012364    435.76508   -2123.5772 
    9600   -102582.26   -92863.273    236.01295    20724    226486.82   -32.813137   -41.374293   -202.84952     145.7844    435.03088    23.499501    22.154615   0.52216187    435.55304   -2115.8713 
    9700   -102473.87   -92841.388     233.9122    20724    226448.33   -3.0631663   -63.823528   -25.764668    80.398697    434.94114    23.499928    22.155018   0.56702849    435.50817   -2143.5733 
    9800   -102461.44   -92817.388    234.19331    20724    226481.64   -31.358209   -119.77498   -155.58553    181.28588    434.98825    23.500384    22.155447   0.54347498    435.53173   -2166.7437 
    9900   -102499.38   -92803.246    235.45805    20724    226410.23   -100.35654    -145.8087   -61.222754   -94.038179    434.73613    23.503491    22.158377   0.66953632    435.40566   -2179.2264 
   10000   -102451.06   -92816.571    233.96093    20724    226398.94    109.30769    3.4996354   -9.7372249    334.16067    434.95784    23.496914    22.152176    0.5586824    435.51652   -2177.0555 
   10100   -102439.89   -92768.853    234.84862    20724    226345.96   -26.021782   -190.93801    269.57458   -156.70191    434.72177    23.500543    22.155597   0.67671707    435.39848    -2219.609 
   10200   -102541.58   -92770.522    237.27749    20724    226367.72   -3.9694175    101.02481     31.71148   -144.64454    434.73301    23.501368    22.156376   0.67109504     435.4041     -2222.59 
   10300   -102439.56   -92719.801    236.03165    20724    226270.47   -34.597079   -56.944281   -89.399498    42.552542    434.66206    23.498237    22.153424    0.7065685    435.36863   -2272.8586 
   10400    -102389.7   -92724.844    234.69841    20724    226261.17   -36.700382   -53.268519    -73.78676    16.954133    434.85761     23.49247    22.147987   0.60879345    435.46641    -2268.558 
   10500   -102242.85   -92710.562    231.47909    20724    226478.76    24.907884    26.312869    96.727183   -48.316399    434.82899    23.504537    22.159363   0.62310506    435.45209   -2280.6863 
   10600   -102382.01   -92686.811    235.43518    20724    226416.06    116.45093    115.12558   -77.453101     311.6803    434.94075    23.498264    22.153449   0.56722599    435.50797   -2312.0998 
   10700   -102341.83   -92649.827    235.35768    20724    226414.18   -16.390134    16.592277    -240.2703    174.50762    434.68814    23.504993    22.159793   0.69353198    435.38167   -2344.9256 
   10800   -102412.75   -92678.017    236.39522    20724    226511.04   -33.132156   -141.86755    7.5851175    34.885966    435.07438    23.499582    22.154692     0.500408    435.57479   -2314.5274 
   10900   -102359.37   -92685.202    234.92455    20724    226577.62    70.105611   -13.711641    196.74155    27.286923    434.88246    23.508221    22.162836   0.59637075    435.47883   -2311.9636 
   11000    -102369.3   -92638.061    236.31054    20724     226498.8   -46.829306    4.4000795   -28.300714   -116.58728    434.86665    23.504559    22.159384   0.60427607    435.47092   -2356.8088 
   11100   -102396.26   -92672.172    236.13673    20724    226444.54   -19.388692    73.186587   -97.226239   -34.126422    434.92284    23.500226    22.155299   0.57618016    435.49902   -2326.3924 
   11200   -102303.06   -92611.348     235.3506    20724    226583.86   -69.295443    136.16852    28.106451    -372.1613    434.97747    23.505978    22.160721   0.54886539    435.52633   -2381.3915 
   11300   -102342.01   -92608.578    236.36375    20724    226415.49    28.875086    101.52858   -53.168151    38.264831    434.92279     23.49872    22.153879   0.57620474      435.499   -2393.8837 
   11400   -102319.05   -92602.977     235.9423    20724    226384.54    12.329796      2.61544    30.077983    4.2959662    434.66712    23.504023    22.158878   0.70403931    435.37116    -2400.625 
   11500   -102226.73   -92605.195    233.64639    20724    226261.81    68.876794   -3.4427393    219.99945    -9.926329    434.78674    23.494418    22.149823   0.64423141    435.43097   -2404.8373 
   11600   -102312.55   -92579.283    236.35974    20724    226405.75   -59.827386   -120.19724    266.31492   -325.59984    434.87979    23.499376    22.154497   0.59770601    435.47749   -2422.1427 
   11700   -102286.97   -92634.796    234.39057    20724     226358.4    18.867489    114.23136       224.85   -282.47889    434.55161     23.50579    22.160544   0.76179718     435.3134   -2371.6346 
   11800    -102325.3   -92592.203    236.35562    20724    226469.45   -30.149759   -49.470991   -157.48403    116.50574    434.79569    23.504954    22.159756   0.63975722    435.43544   -2411.0105 
   11900    -102315.6   -92536.582    237.47063    20724    226504.64   -24.807978    38.813418    -292.6362    179.39885    434.65013    23.510716    22.165188   0.71253579    435.36266   -2466.3122 
   12000   -102205.64   -92499.394    235.70358    20724    226463.64    9.0396162    78.821695   -129.42802    77.725169    434.65227     23.50853    22.163128   0.71146377    435.36374    -2506.496 
   12100   -102255.08   -92545.491    235.78472    20724    226562.09   -6.7169383   -16.160214   -92.434942    88.444341    434.74368    23.511168    22.165614   0.66576084    435.40944   -2455.9761 
   12200   -102205.44   -92504.878    235.56545    20724    226358.98   -10.077444    -85.66328   -87.258876    142.68982    434.72877    23.501029    22.156056   0.67321524    435.40198   -2502.1679 
   12300   -102208.29   -92474.288    236.37755    20724    226296.97   -30.838318   -144.81808    101.83554   -49.532412    434.38813    23.507022    22.161706   0.84353705    435.23166   -2535.3655 
   12400   -102222.95    -92484.31    236.49013    20724    226277.78    77.706911    58.125695    197.51923   -22.524191    434.43746    23.504691    22.159508   0.81887097    435.25633   -2533.2436 
   12500    -102231.6   -92509.167     236.0965    20724    226247.77     24.41917    74.912327    84.040862    -85.69568     434.4989     23.50147    22.156472   0.78815027    435.28705   -2506.3403 
   12600   -102221.79   -92480.534    236.55384    20724    226404.05    48.778279    123.88802   -31.146224    53.593042    434.58909    23.507146    22.161822   0.74305417    435.33215   -2533.8254 
   12700   -102279.08    -92449.56    238.69698    20724    226157.49   -67.151124   -134.04155   -268.67432    201.26249    434.33704    23.501158    22.156178   0.86908037    435.20612   -2567.1159 
   12800   -102189.67   -92464.517    236.16271    20724    226517.63    101.40792   -124.54574    476.89607   -48.126567    434.74379    23.508858    22.163436   0.66570728    435.40949   -2551.9723 
   12900   -102160.29   -92391.418    237.22423    20724    226331.62    -24.90032   -8.9720468    160.68949    -226.4184     434.6057    23.502936    22.157854   0.73474913    435.34045   -2623.2725 
   13000   -102106.94   -92383.497    236.12122    20724    226495.06    28.334007   -85.178471     170.3965  -0.21601112    434.77666    23.506798    22.161495    0.6492705    435.42593   -2631.6909 
   13100   -102164.01   -92356.979    238.15091    20724    226426.06    -8.625879    56.229315    164.49177   -246.59872    434.75413    23.503826    22.158692     0.660535    435.41467   -2658.9626 
   13200   -102076.38    -92388.51    235.25733    20724    226164.97   -18.040487    38.873887    29.207996   -122.20335    434.47589    23.497791    22.153003   0.79965355    435.27555   -2634.9021 
   13300   -102106.58   -92376.713    236.27703    20724    226377.51    36.321541    127.39046    115.22407   -133.64991    434.53758    23.507161    22.161837   0.76881004    435.30639    -2645.014 
   13400   -102056.42   -92400.552     234.4801    20724    226060.55    13.967585    13.964214     179.5612   -151.62266    434.47158    23.492483    22.147999   0.80181195    435.27339    -2628.348 
   13500   -102158.33   -92345.466    238.29262    20724    226350.51  -0.67128298    69.809437   -60.754403   -11.068883    434.36526    23.510422    22.164911   0.85497065    435.22023   -2678.2358 
   13600   -102113.97   -92347.573    237.16421    20724    226245.53    41.991066    74.488872    58.430143   -6.9458162    434.30018     23.50673     22.16143   0.88750753    435.18769   -2681.4352 
   13700   -102048.15   -92313.829    236.38532    20724    226161.14   -50.839762    23.530191   -143.86518   -32.184302    434.27512    23.503023    22.157936   0.90003895    435.17516   -2712.4825 
   13800   -102047.94   -92303.282    236.63628    20724    226249.89    19.266018   -28.192703   -11.258174    97.248932     434.3153    23.506547    22.161258   0.87994891    435.19525   -2723.1909 
   13900   -102123.71   -92279.108    239.06344    20724    226224.01     40.93112    33.506088    119.18579   -29.898514    434.35936     23.50401    22.158866   0.85792094    435.21728   -2752.7355 
   14000   -101990.52   -92305.146    235.19678    20724    226107.97    79.365912    27.502806    167.15708    43.437849    434.66592    23.489694    22.145369   0.70463979    435.37056   -2729.2887 
   14100   -102072.23   -92306.782    237.14118    20724    226227.77   -18.272239   -236.73367    205.70126   -23.784314    434.48572    23.500788    22.155828   0.79473843    435.28046   -2721.9118 
   14200   -102028.31   -92280.172    236.72071    20724    226273.65   -49.104267    3.0719314   -228.95229    78.567561    434.51216    23.502456    22.157401     0.781522    435.29368   -2746.8596 
   14300   -102131.06    -92270.27    239.45641    20724     226247.5   -36.757136   -1.6852562   -102.81918   -5.7669726    434.44673    23.502867    22.157789   0.81423564    435.26096   -2761.1326 
   14400   -102056.14    -92228.27    238.65699    20724    226220.86   -73.314526   -152.63793    9.0583772   -76.364021    434.48528    23.500441    22.155501   0.79496196    435.28024   -2802.0024 
   14500   -101918.19   -92229.562    235.27569    20724    226162.54    79.837823    259.28176   -113.41093    93.642638    434.45877    23.498128    22.153321    0.8082138    435.26699   -2808.8259 
   14600    -102018.7   -92220.732    237.93087    20724     226436.5    102.29188    133.50649    96.495609    76.873547    434.67914    23.506395    22.161115   0.69803084    435.37717    -2812.492 
   14700   -101974.95   -92172.019    238.05149    20724    226157.66     -50.8324    18.362792    142.88971    -313.7497    434.37852    23.500045    22.155128   0.84834087    435.22686   -2863.3453 
   14800   -101991.02   -92171.144    238.46278    20724    226296.26    4.5431923    -30.07687    14.389763    29.316683    434.43996    23.505583    22.160349   0.81762235    435.25758   -2864.8853 
   14900   -102044.62   -92173.907    239.69745    20724    226462.15   -1.7890642    158.60622     -64.8121   -99.161311    434.83194    23.503596    22.158476   0.62163071    435.45357   -2859.1304 
   15000   -101917.87   -92146.665    237.28088    20724    226302.27    45.691701   -106.74573     157.0582    86.762623    434.72098    23.498296    22.153479   0.67711115    435.39809    -2893.785 
   15100   -101935.49   -92124.248    238.25321    20724    226362.33    28.455201   -75.011461   -210.96126    371.33832    434.66398    23.502955    22.157871   0.70561053    435.36959   -2913.8761 
   15200   -101897.98   -92114.146    237.58776    20724    226359.44     11.42334   -18.752681   -27.815429     80.83813    434.89888    23.496457    22.151745   0.58815775    435.48704   -2924.6412 
   15300   -101929.57   -92101.483    238.66218    20724    226336.43   -16.412117   -53.266439     15.73303   -11.702942    434.81247    23.497597     22.15282   0.63136544    435.44383   -2936.4029 
   15400   -101890.75   -92091.714    237.95682    20724    226407.98    173.00892    282.83404    181.28462    54.908104    434.64301    23.505892     22.16064   0.71609711     435.3591   -2954.4564 
   15500    -102008.9    -92106.54    240.46591    20724    226410.67    14.898961   -154.28774    22.827086    176.15754    434.72741    23.503749     22.15862   0.67389251    435.40131   -2935.8897 
   15600   -101967.17   -92115.963     239.2238    20724    226402.68    24.105579    41.374181    106.63833   -75.695778    434.56711    23.507669    22.162316   0.75404521    435.32115   -2927.0014 
   15700   -101833.29   -92092.444    236.54376    20724     226340.2    109.24989    132.34653    64.248679    131.15444    434.58203    23.504022    22.158877   0.74658619    435.32861   -2956.2114 
   15800   -101923.96   -92070.854    239.26988    20724    226373.39     42.19784    39.726474   -44.948948    131.81599    434.76411    23.500822    22.155861   0.65554354    435.41966   -2974.9068 
   15900   -101917.33   -92092.861    238.57433    20724    226443.42    91.915354    64.219598    252.13336   -40.606898    434.56198    23.509923    22.164441    0.7566119    435.31859   -2956.1172 
   16000   -101918.24   -92083.697    238.81899    20724    226243.53   -7.5698896    130.18312   -366.98761    214.09483    434.69454    23.495961    22.151278   0.69032934    435.38487   -2967.6684 
   16100   -101874.75   -92043.231    238.74555    20724    226604.27   -25.421054    -220.3649   -129.56155    273.66329    435.08056    23.504251    22.159093      0.49732    435.57788   -2998.3708 
   16200   -101918.66   -92014.464    240.51039    20724    226415.64   -57.423783   -247.16572   -250.94836    325.84273    434.85135    23.500658    22.155706   0.61192503    435.46327   -3031.1857 
   16300   -101792.28    -91995.21    237.90906    20724    226416.94    54.305762   -35.314206    173.98253    24.248963    434.92153    23.498829    22.153981   0.57683429    435.49837   -3057.8717 
   16400   -101900.03   -92027.075     239.7519    20724    226361.67     18.28621    81.710623   -217.80628    190.95428    434.89083     23.49679    22.152059   0.59218329    435.48302   -3025.8252 
   16500   -101880.96   -92027.043    239.28941    20724    226328.41    9.2259255    70.030221      215.046   -257.39845    434.87883    23.495388    22.150737   0.59818251    435.47702   -3027.5091 
   16600   -101980.86   -92010.999    242.10502    20724    226479.21    4.5784505   -64.529197    50.072389     28.19216    435.12464    23.496574    22.151856   0.47527974    435.59992   -3042.5414 
   16700   -101919.42   -92052.494    239.60537    20724    226262.39   -51.400552   -165.28312    136.21516   -125.13369    435.07656    23.486622    22.142473   0.49932216    435.57588    -3003.433 
   16800   -101848.95   -92048.042     238.0024    20724    226230.82    22.826134    15.017272   -183.41819    236.87932    435.04474    23.485842    22.141738   0.51523033    435.55997   -3012.3954 
   16900   -101939.44   -92014.668    241.01006    20724    226374.47    -82.42649   -228.59191   -68.841967    50.154408    434.82845     23.49914    22.154274   0.62337312    435.45183    -3037.801 
   17000   -101874.78   -91987.128     240.1088    20724    226359.45   -7.6695406   -18.396077   -64.646202    60.033657    434.67194     23.50259    22.157528   0.70163123    435.37357   -3071.0042 
   17100   -101922.19   -91978.065    241.48012    20724    226414.69   -81.990438   -142.62093   -133.53889    30.188497    434.70611    23.504534     22.15936    0.6845474    435.39065     -3076.95 
   17200   -101926.39   -91959.473     242.0337    20724    226416.83   -60.977912    196.09231   -372.15752   -6.8685262    434.97062    23.497497    22.152726   0.55228761    435.52291    -3095.888 
   17300   -101826.24   -91962.959    239.51687    20724    226374.12    65.868687    150.16161   -4.4398464    51.884294    434.67842    23.503177    22.158081   0.69838994    435.37681   -3100.3875 
   17400   -101852.93   -91918.207    241.25181    20724    226570.16   -58.889426    1.6293859   -276.53174     98.23408     434.9445    23.506158    22.160891   0.56534912    435.50985   -3134.1502 
   17500   -101843.54   -91945.332    240.36498    20724    226372.73    90.538725   -102.08507    211.62987    162.07137    434.94534    23.495891    22.151212   0.56493216    435.51027   -3122.7351 
   17600   -101717.03   -91944.296    237.31803    20724    226516.38    29.994004   -98.627054    170.17428    18.434791    435.09089    23.499414    22.154533   0.49215635    435.58304   -3115.3641 
   17700   -101826.64   -91938.525    240.11999    20724    226483.86    -9.799356    86.487945   -141.12517    25.239154    434.93391    23.501967     22.15694   0.57064316    435.50456   -3122.5323 
   17800   -101827.97   -91896.598    241.17051    20724    226302.51    53.909079    25.587319   -64.692509    200.83243    434.71749    23.498403     22.15358   0.67885703    435.39634   -3174.9269 
   17900   -101769.61    -91882.59    240.09345    20724    226346.62    71.050381   -4.4200635   -24.513671    242.08488    434.65398     23.50241    22.157357   0.71060954    435.36459   -3188.1476 
   18000   -101844.41   -91885.265    241.84491    20724    226241.15    25.324167   -18.379112    81.754988    12.596626    434.58807    23.498715    22.153874   0.74356252    435.33164    -3188.576 
   18100   -101780.81   -91866.927    240.74585    20724    226337.04    18.480139   -29.482175   -171.31233    256.23492    434.51096     23.50578    22.160535   0.78212132    435.29308   -3203.6199 
   18200   -101773.95   -91872.458    240.44473    20724    226444.58    83.202886    216.42227    69.931275   -36.744891    434.58161    23.509452    22.163997   0.74679725     435.3284   -3200.9543 
   18300   -101722.39   -91831.437     240.1889    20724    226363.52    83.243056     147.9359    -3.470633     105.2639    434.77044    23.500139    22.155217   0.65238074    435.42282   -3244.6869 
   18400   -101690.71   -91841.289    239.18044    20724    226346.99   -22.660586    -139.1082   -52.421466    123.54791    434.87092    23.496566    22.151848   0.60213854    435.47306   -3229.0875 
   18500   -101774.18    -91860.33    240.74486    20724    226345.94    59.784378    8.7199342   -140.19707    310.83027    434.56678    23.504732    22.159547   0.75420977    435.32099   -3215.3607 
   18600    -101728.1   -91819.171    240.62554    20724     226430.6    -23.98037    157.73747    26.499195   -256.17778    434.77595    23.503472    22.158358   0.64962525    435.42557   -3251.5661 
   18700   -101735.69   -91816.539    240.87355    20724    226149.92    10.153641   -94.446999    104.53748    20.370446    434.41793    23.498577    22.153744   0.82863347    435.24657   -3264.7953 
   18800   -101650.87   -91775.895    239.80082    20724    226152.14    -5.920044   -133.01548    200.74861   -85.493266    434.32163    23.501298    22.156309   0.87678504    435.19841   -3307.0091 
   18900   -101741.84    -91815.34    241.05216    20724    226117.27    35.153583    72.291364   -10.931936    44.101322    434.11688    23.505026    22.159824    0.9791594    435.09604   -3272.8586 
   19000   -101856.62   -91837.465    243.30201    20724    226140.48    14.548721    34.872326   -120.47858    129.25242    434.02685    23.508671     22.16326    1.0241727    435.05103   -3248.8045 
   19100   -101659.08   -91804.237    239.31213    20724    226042.15    50.624423    40.961994    203.99965   -93.088373    434.15669    23.500044    22.155127   0.95925443    435.11595   -3288.3771 
   19200    -101729.3   -91789.071     241.3855    20724    226105.52    33.372291   -112.39544    34.547145    177.96517    433.87406    23.510992    22.165449    1.1005713    434.97463   -3301.2959 
   19300   -101693.98   -91794.008    240.40791    20724    225980.57    11.000962  -0.95327802    54.608639   -20.652475    433.95045    23.502426    22.157373     1.062373    435.01283   -3299.4167 
   19400   -101708.38   -91752.868    241.75661    20724    226143.75    49.586094    224.98071   -13.358812   -62.863613    434.09225     23.50707    22.161751   0.99147685    435.08372   -3338.5383 
   19500    -101660.1   -91749.639    240.66254    20724    226105.51   -34.269746   -1.8584253    -62.68965   -38.261162    434.28049    23.499987    22.155074    0.8973532    435.17785   -3338.8553 
   19600    -101736.7   -91741.292     242.7255    20724    226143.28   -62.507762   -124.94969    23.405404   -85.978995    434.16886    23.504971    22.159772   0.95317244    435.12203   -3346.8544 
   19700   -101622.16   -91697.658     241.0037    20724    226189.57    73.400004    32.074834    97.001209    91.123968    433.90159    23.514615    22.168865    1.0868068    434.98839   -3396.8832 
   19800   -101666.34   -91666.499    242.83312    20724    226066.47   -114.55167   -106.99165   -29.273649   -207.38971    433.86196    23.509289    22.163843    1.1066184    434.96858   -3422.4278 
   19900   -101599.98   -91674.091    241.03731    20724    226041.88    -7.247655   -58.867249     77.07432   -39.950036     433.8066    23.509511    22.164052    1.1343001     434.9409   -3421.2855 
   20000   -101614.14   -91687.723    241.05006    20724    225702.52   -6.8728397   -34.478478    43.209338    -29.34938    433.62822    23.496688    22.151963    1.2234921    434.85171   -3420.4735 
   20100   -101741.31   -91658.132    244.85673    20724    226001.68   -21.062096    102.82288   -231.16016    65.150988    433.75773    23.508744     22.16333    1.1587371    434.91646   -3442.9234 
   20200   -101614.57   -91679.652    241.25644    20724    225887.37    15.421093   -174.72004   -24.492372    245.47569    433.63874    23.506023    22.160764    1.2182298    434.85697   -3425.5085 
   20300   -101641.89   -91646.839    242.71669    20724    225944.92    -69.98161    87.758906   -17.524964   -280.17877    433.59877    23.510101    22.164608    1.2382158    434.83698   -3452.5851 
   20400   -101644.12   -91662.558    242.38913    20724    225905.22    24.131878   -134.86431     107.6533    99.606652    433.26835    23.516997     22.17111    1.4034251    434.67177   -3442.5396 
   20500   -101670.38   -91660.145    243.08542    20724    226133.74    1.6883448    66.084046   -263.45186    202.43285    433.63278       23.519    22.172998    1.2212077    434.85399   -3440.1731 
   20600   -101694.63   -91671.032     243.4099    20724    225921.56  -0.39402938   -118.15971   -41.416024    158.39365    433.49302    23.511752    22.166165    1.2910919    434.78411   -3436.8433 
   20700   -101638.14   -91601.087    243.73684    20724    225981.77   -18.098103    62.120345   -46.090608   -70.324044    433.75148    23.507878    22.162513    1.1618586    434.91334   -3505.9062 
   20800   -101609.96    -91599.78    243.08412    20724    225877.17    21.868475     186.7147    135.36094   -256.47022    433.68329    23.504285    22.159125    1.1959554    434.87924   -3515.5124 
   20900    -101569.1   -91591.047    242.30406    20724    226151.49   -7.5613023   -98.854829   -72.580635    148.75156    433.99246    23.510175    22.164678    1.0413725    435.03383   -3514.1234 
   21000   -101539.54   -91594.759    241.49595    20724    226020.08    59.077397    12.590938   -79.339544     243.9808    433.90092    23.505822    22.160574    1.0871389    434.98806   -3518.9558 
   21100   -101562.75   -91609.423    241.70351    20724    226037.06    40.898016     76.31353   -69.318224    115.69874    433.93268    23.505845    22.160596    1.0712591    435.00394   -3504.1507 
   21200   -101508.31   -91571.006    241.31456    20724    226043.41   -69.949622   -35.467438   -9.4322381   -164.94919    434.10418    23.501531    22.156529   0.98550831    435.08969   -3537.0612 
   21300   -101555.73   -91599.437    241.77555    20724    226308.32    167.08813     375.4503    28.038532    97.775571    434.09195     23.51563    22.169821   0.99162378    435.08358   -3516.9676 
   21400   -101613.85   -91585.562    243.52385    20724    226048.04   -76.248908    108.39043   -394.68283    57.545676    433.94442    23.506098    22.160834    1.0653905    435.00981   -3527.8685 
   21500   -101638.29   -91595.369    243.87935    20724    226205.24   -43.485828   -73.163402   -166.78569    109.49161    434.10399    23.509947    22.164464    0.9856049     435.0896   -3515.6568 
   21600   -101564.92   -91567.867    242.76538    20724    226235.14   -83.771835    -123.9271   -4.8231988   -122.56521    434.07942    23.512166    22.166556   0.99788983    435.07731    -3540.506 
   21700   -101583.35   -91593.587    242.58828    20724    226135.66    1.6856119   -90.805256   -217.46083    313.32292    433.99466    23.509292    22.163846     1.040269    435.03493   -3522.6368 
   21800   -101520.18   -91582.991    241.31173    20724    226243.53    82.952048    230.74007    79.978505   -61.862427    434.15881    23.510453     22.16494    0.9581975      435.117   -3535.6318 
   21900   -101568.07    -91561.62    242.99358    20724    225933.84  -0.82396613   -46.969445    114.36243   -69.864887    433.78278    23.504537    22.159363      1.14621    434.92899   -3562.9878 
   22000   -101561.28   -91553.831    243.01782    20724    226051.81   -38.857737   -72.048595   -178.72553    134.20091    434.04005    23.503704    22.158578    1.0175749    435.05763   -3565.9677 
   22100   -101448.61   -91514.952    241.22604    20724    225846.91    -86.26335    19.145499   -108.27922   -169.65633    433.74795    23.500958    22.155989    1.1636235    434.91158   -3608.3702 
   22200   -101569.44   -91547.655    243.36603    20724    225974.16    -13.72099    56.747613    9.8501044   -107.76069     433.9995    23.500765    22.155807    1.0378512    435.03735   -3578.8644 
   22300   -101455.59   -91577.818    239.86893    20724    226080.31    23.040648     62.98259     264.2457   -258.10635    433.96959    23.507094    22.161773    1.0528058    435.02239   -3548.6256 
   22400   -101477.83   -91489.659    242.54965    20724    226145.37   -38.735912   -34.331185    -232.3764    150.49985    433.87905    23.512929    22.167275    1.0980761    434.97712    -3632.251 
   22500   -101444.39   -91460.507    242.44558    20724    226056.62    33.009602    51.686835    254.77734   -207.43537      433.703    23.513085    22.167422    1.1860997     434.8891   -3669.0938 
   22600   -101509.42   -91523.752    242.48899    20724    226122.91    17.930612    66.055252    10.483362   -22.746779    433.76958    23.514728    22.168971    1.1528113    434.92239   -3604.8195 
   22700    -101557.8   -91495.801    244.34245    20724    226161.86   -25.127951   -7.0558953    93.732083   -162.06004    434.00029    23.510501    22.164986     1.037454    435.03775   -3631.1493 
   22800   -101456.79   -91513.183    241.46762    20724    226055.75    8.0932008   -199.04821    158.73327    64.594551    433.96257    23.506007    22.160749    1.0563162    435.01888   -3618.8312 
   22900   -101531.03   -91514.513    243.23816    20724    225996.21    45.963033   -61.416379    43.079465    156.22601    434.00168    23.501852    22.156832    1.0367613    435.03844   -3620.7495 
   23000   -101449.68   -91463.509    242.50113    20724    226114.96   -42.009314    100.90781   -127.11752   -99.818227    434.21524    23.502244    22.157201   0.92998188    435.14522   -3665.3171 
   23100   -101469.03   -91470.543    242.80026    20724    225926.04    18.815428    4.9561502   -243.10818    294.59831    433.84602    23.502418    22.157365    1.1145876    434.96061     -3667.25 
   23200   -101511.97   -91464.562    243.98821    20724    226034.96    3.6547012    29.842911    112.19452   -131.07332    434.19084    23.498747    22.153904   0.94217993    435.13302   -3669.4094 
   23300   -101405.33   -91436.642    242.07672    20724    225998.08    92.385051    131.05012    305.02501   -158.91997    434.29333    23.494056    22.149482   0.89093589    435.18426   -3706.1383 
   23400      -101449   -91403.763    243.93544    20724    226010.57    12.628678    17.782917   -106.00301    126.10613    434.05373     23.50119    22.156207    1.0107365    435.06446   -3735.4356 
   23500   -101443.54   -91394.536    244.02702    20724    226148.86   -5.4741932    31.174539    78.391649   -125.98877    434.06562    23.508056    22.162681     1.004789    435.07041   -3739.8736 
   23600   -101440.56   -91395.121    243.94052    20724    226108.66    38.074131    204.18684   -12.602351   -77.362098    433.96036    23.508817    22.163398    1.0574201    435.01778   -3744.9107 
   23700   -101386.71   -91357.862    243.53756    20724    226137.39   -5.7863948   -155.37902     265.6417   -127.62186    434.01295    23.508886    22.163463    1.0311235    435.04408   -3779.1663 
   23800   -101352.06   -91337.885    243.18124    20724    226163.51   -22.603389    294.08549   -219.35178   -142.54388    434.06049    23.508957     22.16353    1.0073572    435.06784    -3798.341 
   23900   -101421.45     -91343.1     244.7395    20724    226217.68   -14.662736    76.659713   -149.06804    28.420125    434.08698    23.511055    22.165508    0.9941123    435.08109   -3794.1172 
   24000   -101328.92   -91358.675    242.11439    20724    226239.22     32.83863   -134.84659   -48.788909    282.15139    434.05975    23.512912    22.167258    1.0077256    435.06747   -3782.2507 
   24100   -101359.65   -91346.954    243.14531    20724    226077.57     -26.6589   -27.136469    138.19609   -191.03632    434.02713    23.505393     22.16017    1.0240375    435.05116    -3796.186 
   24200   -101455.46   -91316.631    246.20829    20724    226102.35   -74.868985   -133.77962    102.08156   -192.90889    434.10174    23.504661     22.15948   0.98672881    435.08847   -3826.8449 
   24300   -101352.29    -91268.03    244.88318    20724    226220.12   -41.556496   -38.807682   -270.30876    184.44695    434.23359    23.507212    22.161885    0.9208071    435.15439   -3871.6862 
   24400   -101374.45   -91305.912    244.50138    20724    226056.57   -5.5124683    98.190852   -275.52963    160.80137    434.25571    23.498114    22.153308   0.90974548    435.16545   -3841.6837 
   24500   -101324.42   -91271.745    244.11616    20724    225998.68    47.834897   -45.413796   -94.455743    283.37423      434.146    23.498074     22.15327   0.96460055     435.1106   -3882.3094 
   24600   -101428.21   -91301.052    245.92475    20724    226066.24   -66.561797    77.211233   -22.804808   -254.09182    434.16838     23.50098    22.156009    0.9534115    435.12179   -3846.2677 
   24700   -101315.82   -91223.376    245.08181    20724    226085.73   -41.978781   -160.78392   -310.30816    345.15574    434.13507    23.502895    22.157815   0.97006713    435.10513   -3924.7164 
   24800   -101418.43   -91219.773    247.66101    20724    226103.27   -52.269539   -83.361433   -210.82028     137.3731    434.31509    23.498935    22.154081   0.88005573    435.19514   -3928.1239 
   24900   -101305.95   -91184.758    245.78003    20724    226259.59   -70.541471   -108.81364   -48.718349   -54.092424    434.35711     23.50592    22.160667   0.85904685    435.21615    -3957.059 
   25000   -101296.44   -91214.037    244.83801    20724    226342.12   -11.790927   -198.93382    213.02711    -49.46607    434.47927    23.506901    22.161591   0.79796579    435.27723   -3930.2812 
   25100    -101278.1   -91194.367    244.87034    20724     226202.4   -6.6023366     32.31743   -50.238384   -1.8860562    434.13438    23.508977    22.163549   0.97040927    435.10479   -3953.9173 
   25200   -101272.98   -91204.945     244.4891    20724    226102.04    22.762995   -68.831245   -72.687705    209.80794    434.21295    23.501635    22.156627   0.93112675    435.14407   -3950.6331 
   25300   -101330.89   -91217.468    245.59129    20724    226146.11   -62.269947     22.30937   -173.35892   -35.760293    434.40228    23.498802    22.153956   0.83645795    435.23874   -3932.7293 
   25400   -101315.73   -91206.098    245.49925    20724    226221.53   -7.4512772   -40.432577   -14.802243    32.880989    434.35115    23.504104    22.158955    0.8620252    435.21317   -3945.6308 
   25500   -101202.54    -91204.96    242.77827    20724    226201.48    82.661402     37.53393    13.432718    197.01756    434.30335    23.504355    22.159192   0.88592541    435.18927   -3952.9107 
   25600   -101293.97   -91166.312    245.93704    20724    226276.49   -34.694849    7.5097242   -19.506316   -92.087955    434.04497    23.515248    22.169461    1.0151137    435.06009   -3983.2434 
   25700   -101361.68   -91217.362     246.3416    20724     225981.6   -64.281489   -415.26077    16.008801     206.4075    433.67586    23.509919    22.164437    1.1996704    434.87553   -3945.0022 
   25800   -101390.62   -91228.078    246.78399    20724    226137.69   -73.784905   -58.293966   -411.43369    248.37293    433.72672    23.516658     22.17079     1.174242    434.90096   -3930.0785 
   25900    -101253.8   -91193.892    244.29179    20724    225972.94    3.3006211   -120.02703    -87.53763    217.46652    433.47653    23.514873    22.169107    1.2993342    434.77587   -3971.9356 
   26000   -101295.15   -91180.939    245.61052    20724    225851.59   -41.896905    -58.55492   -89.724369    22.588575    433.54677    23.506654    22.161359    1.2642143    434.81099   -3989.8253 
   26100   -101278.13   -91184.629    245.10745    20724    225961.02    37.612429    54.810782   -33.335823    91.362329    433.42673    23.515604    22.169796    1.3242331    434.75097   -3985.7857 
   26200   -101267.31   -91181.385    244.92347    20724    225842.49    25.566983    -186.5296    80.310445     182.9201    433.47004    23.508261    22.162873    1.3025818    434.77262   -3994.7557 
   26300   -101237.13   -91179.041    244.24748    20724    225884.27    -68.23378    21.603801   -28.080765   -198.22438    433.41781    23.511852    22.166259    1.3286948    434.74651   -3993.8786 
   26400   -101289.98   -91159.275    246.01089    20724    225912.56    24.226242    238.13692   -230.66675    65.208551    433.54746    23.509808    22.164332    1.2638685    434.81133   -4017.4063 
   26500   -101358.22    -91153.87    247.79942    20724    225960.34   -19.996888      54.9348   -159.35408    44.428619    433.56136    23.511917    22.166321    1.2569193    434.81828   -4022.5611 
   26600   -101209.98    -91137.34    244.60099    20724    225957.28    67.976076    90.874133   -83.090605     196.1447    433.44781    23.514837    22.169074    1.3136937    434.76151   -4042.8935 
   26700   -101173.26   -91116.994    244.20324    20724    225757.48    33.082975   -26.470908   -225.59219    351.31202    433.45213    23.504322     22.15916    1.3115349    434.76367   -4069.1461 
   26800   -101178.66   -91076.304     245.3226    20724    225945.34    -57.50578   -40.020793   -160.79641    28.299861    433.68129    23.507886     22.16252    1.1969562    434.87824   -4098.5868 
   26900   -101167.09   -91141.744    243.45259    20724    225859.63    65.886704    180.17764    128.32079   -110.83832    433.59809    23.505681    22.160441    1.2385532    434.83665   -4043.2341 
   27000   -101287.45   -91141.185    246.38884    20724     225726.2    -33.02696    4.9562614   -44.413305   -59.623837    433.59738    23.498756    22.153913    1.2389119    434.83629   -4046.4328 
   27100   -101141.18   -91130.708    243.09128    20724    225803.15    8.3071423   -60.705555   -84.482041    170.10902     433.5074      23.5052    22.159988    1.2839007     434.7913   -4056.1031 
   27200   -101159.71   -91117.461     243.8629    20724    225816.29    -8.483256   -157.29581   -253.42353    385.26957    433.37081    23.509588    22.164125    1.3521961      434.723   -4068.3113 
   27300   -101157.66   -91120.518    243.73883    20724    225964.93    95.840194    13.035504   -120.01788    394.50296    433.40655    23.516355    22.170504     1.334323    434.74088   -4067.9724 
   27400   -101234.24   -91132.789     245.3005    20724    225937.52    71.883918    254.02263    155.25831   -193.62918    433.40882    23.514867    22.169102     1.333191    434.74201   -4055.6543 
   27500   -101213.91   -91150.721    244.37138    20724    226005.49   -33.365175    33.760783    18.118532   -151.97484    433.38248    23.519118     22.17311      1.34636    434.72884   -4032.6854 
   27600   -101258.81   -91123.741      246.117    20724    225881.49    34.969356    107.41185    274.15193   -276.65571     433.6494    23.505428    22.160203    1.2129006     434.8623   -4066.5176 
   27700   -101125.58     -91056.8    244.50716    20724    225932.08    120.35746    315.18624    88.987573   -43.101451    433.47156    23.512882     22.16723    1.3018194    434.77338   -4137.4468 
   27800    -101170.9   -91104.852    244.44093    20724    225860.57    34.561697    206.58976   -152.64443    49.739755    433.49313    23.508576     22.16317    1.2910332    434.78417   -4088.3901 
   27900   -101356.23   -91093.922    249.20688    20724    225795.41   -89.288726    -210.1904   -237.93073    180.25495    433.44739    23.506424    22.161142    1.3139043     434.7613   -4097.5277 
   28000   -101242.06   -91100.402    246.27692    20724    225783.12    -73.11082     105.2637    155.78683   -480.38299    433.39264     23.50727    22.161939    1.3412819    434.73392    -4092.342 
   28100   -101184.17   -91059.414    245.86642    20724       225749   -32.457282     40.02909   -174.52269    37.121751    433.52739     23.50184     22.15682    1.2739027     434.8013   -4136.9562 
   28200   -101072.91   -91064.438    243.04274    20724    225846.71    53.620584     83.57307    106.91672    -29.62804     433.6262    23.504247     22.15909    1.2245017     434.8507   -4133.4109 
   28300   -101233.49   -91043.133    247.45954    20724    225911.97   -15.076081    252.33863    52.799006   -350.36588    433.71273    23.505298     22.16008    1.1812365    434.89396   -4151.9376 
   28400   -101165.68   -91067.877    245.21188    20724    225946.06    47.321238   -5.3277432    103.54972     43.74174    433.67073    23.508209    22.162825    1.2022351    434.87296   -4130.0521 
   28500   -101207.01   -91045.578    246.75711    20724    225967.15   -84.452988   -64.032869   -101.78286   -87.543238    433.65263    23.509797    22.164322     1.211285    434.86392    -4144.672 
   28600   -101318.69   -91091.145    248.36252    20724    226003.37   -38.603813    177.99919   -130.15197   -163.65866     433.6247    23.512438    22.166812    1.2252508    434.84995   -4103.2867 
   28700   -101147.72   -91056.249    245.05829    20724    225890.73    12.824776   -163.05869    27.199949    174.33307    433.57117    23.508029    22.162655    1.2520151    434.82318   -4144.0662 
   28800   -101166.68   -91043.375    245.83124    20724    225959.07    -12.98211    17.367569   -99.509674    43.195776    433.62412     23.51015    22.164654    1.2255423    434.84966   -4154.5873 
   28900   -101142.69   -91069.904    244.60451    20724    225849.29    38.468759    125.07218    -73.05147    63.385568    433.51073    23.507511    22.162167    1.2822329    434.79297   -4136.0687 
   29000   -101132.54   -91010.583    245.79851    20724    225845.43    19.202188    155.00257   -116.85051    19.454509    433.58092    23.505407    22.160184    1.2471387    434.82806   -4195.8226 
   29100   -101148.19    -91005.82    246.29427    20724    225818.47   -27.747682   -84.839691    48.505988   -46.909345    433.41673    23.508456    22.163058    1.3292329    434.74597   -4198.3395 
   29200   -101206.65   -90986.034    248.19431    20724    225923.97    68.144599    -73.44555   -19.872418    297.75177    433.47707     23.51231    22.166691     1.299063    434.77614   -4220.7201 
   29300   -101105.39   -91000.692    245.37931    20724    225716.15    28.272553   -76.908253    137.97192     23.75399    433.19143    23.509241    22.163798    1.4418828    434.63332   -4212.2301 
   29400   -101040.65   -91030.023    243.09513    20724       225616   -5.4717905    -178.8429     97.75446    64.673067    433.35748    23.499521    22.154634    1.3588613    434.71634   -4184.4335 
   29500   -101097.54   -90967.814    245.98729    20724    225882.07    18.428904    11.717687      288.935   -245.36597    433.41893    23.511707    22.166122     1.328136    434.74706   -4240.0037 
   29600   -101113.39   -90959.223     246.5808    20724     225812.6   -48.189794   -216.94967    34.839086    37.541205    433.27913    23.511883    22.166289    1.3980358    434.67716   -4250.2866 
   29700    -101126.3    -90946.46    247.20417    20724    225582.87   -10.646416   -131.69174   -34.618666    134.37116    433.09534    23.504906    22.159711    1.4899293    434.58527   -4274.0518 
   29800   -101131.69   -90973.883    246.66918    20724    225808.09  -0.82319285   -125.86373    241.78173   -118.38758    433.24471    23.512583    22.166948    1.4152456    434.65995   -4239.8854 
   29900   -101163.09   -90959.393    247.78356    20724    225517.03    32.101215    92.867091    162.55906    -159.1225    432.89525    23.506906    22.161597    1.5899758    434.48522   -4267.2423 
   30000   -101153.33   -90918.775     248.5328    20724    225565.47    -45.30898    -72.95484   -61.699263   -1.2728372    432.85608    23.510494    22.164979    1.6095577    434.46564   -4302.8396 
   30100   -101029.35   -90916.926    245.56714    20724     225481.4   -13.294497    99.253527   -43.400695   -95.736323    432.68155    23.510853    22.165318    1.6968242    434.37838   -4308.1554 
   30200   -101221.63   -90945.174    249.55038    20724    225724.55   -89.295789   -12.698319    -183.0458   -72.143247    433.06966    23.512983    22.167326    1.5027717    434.57243   -4273.0885 
   30300   -101187.98   -90982.221    247.83354    20724     225557.4    48.566226   -92.622237    46.322561    191.99835    432.82003    23.511053    22.165506    1.6275864    434.44761   -4249.8057 
   30400   -101051.13   -90916.735    246.10048    20724    225650.97    20.512479   -62.910092    69.225364    55.222167    432.80135    23.516437    22.170582    1.6369258    434.43827   -4309.2621 
   30500   -101088.09   -90885.012    247.76845    20724    225529.22    61.072182    12.967208    136.88025    33.369086    432.70922    23.512594    22.166959    1.6829903    434.39221   -4347.6773 
   30600   -101138.23   -90904.869    248.50395    20724    225672.17   -110.22877    84.570703   -321.80187   -93.455138    432.86752    23.515744    22.169928    1.6038392    434.47136   -4317.4766 
   30700   -101153.26   -90934.391    248.15184    20724    225674.67    -13.37172    26.166149     55.25288   -121.53419    433.32327    23.503504    22.158389    1.3759641    434.69924   -4294.5215 
   30800    -101170.3   -90915.614    249.02163    20724     225759.3   -52.034739   -113.53617   -27.338347     -15.2297    433.36011    23.506912    22.161602    1.3575463    434.71765   -4312.5716 
   30900   -101139.42   -90913.988    248.31124    20724    225701.43   -34.155002   -85.506191     98.90277   -115.86158    433.05215    23.512254    22.166639    1.5115229    434.56368   -4316.4595 
   31000   -101092.03   -90915.697    247.11896    20724    225733.71   -33.532324   -127.74486   -12.324868     39.47275    433.38323    23.504952    22.159754    1.3459846    434.72922   -4314.4568 
   31100   -101072.77   -90888.455    247.31292    20724    225601.97   -62.817277    70.340362   -202.21232   -56.579871    433.35515    23.498854    22.154005    1.3600256    434.71517   -4344.5431 
   31200    -101050.1    -90865.03    247.33125    20724    225701.95   -29.098574     -29.5853    143.12585   -200.83627    433.55866    23.498543    22.153712    1.2582717    434.81693   -4367.8325 
   31300    -101108.7   -90838.289    249.40349    20724    225726.98   0.29416897   -89.403532   -83.400844    173.68688    433.34513    23.505635    22.160398    1.3650327    434.71017   -4394.6306 
   31400   -101069.14   -90830.152    248.64052    20724    225737.25   -22.535113   -57.966922   -356.91319    347.27477    433.23969     23.50903    22.163599    1.4177547    434.65745   -4403.3647 
   31500   -101009.78   -90855.301    246.58829    20724    225444.09     39.44112    129.27459   -54.521065    43.569833    433.05913    23.498657     22.15382     1.508035    434.56716   -4389.3756 
   31600   -101033.29   -90820.245    248.01044    20724     225692.2     56.90785   -45.709738    25.856613    190.57668    433.16052    23.508832    22.163412    1.4573391    434.61786   -4421.5456 
   31700   -101019.93    -90842.92    247.13531    20724    225708.28   -9.2662537   -42.306937    4.8553324    9.6528434    433.14628    23.510056    22.164566    1.4644576    434.61074   -4395.1714 
   31800   -101025.29   -90829.306    247.59612    20724    225737.67   -6.6569703    106.77566    102.45856   -229.20514    433.22482    23.509456       22.164    1.4251896    434.65001   -4410.6807 
   31900   -101114.07   -90819.182      249.998    20724     225665.3   -11.593025    50.974896   -209.94406    124.19009    433.14669    23.507806    22.162445    1.4642545    434.61095   -4422.9744 
   32000   -101052.55   -90819.097    248.50599    20724    225587.56    47.493265    194.20395   -19.028055   -32.696099    433.18838    23.502626    22.157561    1.4434122    434.63179   -4429.4978 
   32100   -100936.12   -90769.622    246.88005    20724    225675.45    15.760781    50.307829   -31.322849    28.297363    433.03201    23.511448    22.165878    1.5215947    434.55361   -4474.0797 
   32200   -101013.81   -90784.012     248.4172    20724    225844.85   -66.982807    -69.21493    183.43058   -315.16407    433.29469     23.51314    22.167473    1.3902551    434.68494   -4453.1693 
   32300   -101076.82    -90760.79    250.51133    20724     225738.6   -37.787209     37.49324   -35.961517   -114.89335    433.22557    23.509483    22.164026    1.4248145    434.65039    -4482.872 
   32400   -100969.71   -90761.821    247.88521    20724    225774.25   -2.6914196   -4.8784056    161.72733   -164.92318    433.44515    23.505384    22.160161    1.3150237    434.76018   -4483.3731 
   32500   -101033.08   -90798.933    248.52289    20724    225967.99    39.511713   -12.718251    376.69969    -245.4463    433.60869    23.511032    22.165486    1.2332543    434.84195   -4444.6044 
   32600   -100920.01   -90776.444    246.32324    20724    225625.23    -119.3421   -139.63905   -7.5561811   -210.83107    433.32003    23.501017    22.156045    1.3775852    434.69761   -4468.7228 
   32700   -100990.94   -90755.648    248.55062    20724    225688.86   -58.163838   -126.59826   -120.55988    72.666621     433.5136    23.499083    22.154221    1.2807997     434.7944   -4492.7214 
   32800   -100928.14    -90743.93    247.31032    20724    225502.61   -52.107802    14.037887   -161.07444   -9.2868483    433.53823    23.488717    22.144449    1.2684847    434.80672   -4510.5982 
   32900   -100902.94   -90769.887    246.06789    20724    225634.39    23.559896   -163.20096     281.2911   -47.410455    433.49183    23.496837    22.152104    1.2916856    434.78351   -4485.7176 
   33000   -101020.66   -90787.081     248.5091    20724    225700.35   -17.211303    38.693635    171.22074   -261.54829    433.61979    23.496804    22.152072    1.2277074    434.84749   -4468.3663 
   33100   -100896.37   -90754.175    246.29002    20724    225666.16    104.48823   -102.68961    181.01714    235.13716    433.23422    23.505477    22.160249    1.4204908    434.65471   -4506.0509 
   33200   -100910.05   -90736.311    247.05604    20724    225771.03    39.568963   0.57623898    413.39395    -295.2633    433.42144    23.505859     22.16061    1.3268822    434.74832   -4520.5521 
   33300   -100883.27   -90751.579    246.03486    20724    225715.19   -1.4306883   -153.77029    308.22583   -158.74761    433.47037    23.501625    22.156618    1.3024164    434.77278    -4505.609 
   33400   -100862.71   -90725.378    246.17195    20724    225480.14     125.2406    69.564966    179.46283      126.694    433.18137    23.497219    22.152464    1.4469142    434.62829   -4548.0144 
   33500   -100913.37   -90703.056    247.94425    20724    225537.46    87.309645    217.33909    363.32341   -318.73357    433.24097    23.498589    22.153756    1.4171127    434.65809   -4567.3748 
   33600   -100838.92   -90697.747    246.26517    20724    225523.19   -41.355615   -151.34306   -180.06052    207.33673    433.24073    23.497853    22.153061    1.4172367    434.65796   -4564.5245 
   33700   -100923.19   -90715.569    247.87888    20724    225754.78    -41.20861   -206.29481    312.59115   -229.92217     433.1583    23.512151    22.166541    1.4584486    434.61675   -4543.9096 
   33800    -100865.7   -90715.917    246.47423    20724    225594.45  -0.37167331   -39.758296    101.46977   -62.826491    433.05879    23.506501    22.161215    1.5082035      434.567   -4551.2668 
   33900   -100880.39   -90667.077    248.01693    20724     225762.2   -20.288066    112.89414    12.586197   -186.34454    433.24587    23.510161    22.164666    1.4146666    434.66053   -4595.6267 
   34000   -100946.66   -90696.623    248.90871    20724    225526.82    -58.02616   -3.1988795   -126.92566    -43.95394     433.1045    23.501737    22.156723    1.4853493    434.58985   -4573.4662 
   34100   -100878.88   -90659.942    248.15368    20724    225806.76    1.4663825   -46.087734    -134.3371    184.82398    433.32088    23.510446    22.164934    1.3771575    434.69804   -4606.2054 
   34200   -100914.01    -90678.25    248.56208    20724    225800.17    -13.67278    -261.9424    127.75236    93.171701    433.37446     23.50865    22.163241    1.3503707    434.72483   -4589.5854 
   34300   -100955.02   -90678.405    249.55429    20724    225828.32   -45.219531    45.851633   -152.73639   -28.773837    433.21149    23.514537    22.168791    1.4318527    434.64335   -4588.0645 
   34400   -100896.72    -90656.27    248.67609    20724    225911.81   -20.677514    80.838263   -68.708286   -74.162518    433.36877    23.514615    22.168864    1.3532146    434.72199   -4610.3699 
   34500   -100877.15   -90627.867    248.89037    20724    226063.84   -35.982045    21.455727   -255.32657    125.92471    433.62595    23.515549    22.169745    1.2246254    434.85057   -4634.7202 
   34600   -100892.69   -90617.902    249.50977    20724    226096.16    15.167856    142.85052   -153.40479     56.05783    433.91707     23.50934    22.163891    1.0790668    434.99613   -4647.3484 
   34700   -100865.12   -90586.717    249.59759    20724    226078.49    66.134914    14.894646    52.143712    131.36638    433.85357    23.510142    22.164647    1.1108173    434.96438   -4685.5466 
   34800   -100861.96   -90552.432     250.3535    20724    226202.04   -82.832951   -51.615019     75.62619   -272.51002    434.10949    23.509632    22.164167   0.98285576    435.09234   -4709.0679 
   34900   -100749.96   -90553.179    247.61565    20724    226011.83   -9.0711002    150.41005   -32.408537   -145.21481    433.83508    23.507176    22.161851    1.1200602    434.95514   -4718.5978 
   35000   -100794.82   -90546.774    248.86035    20724    225786.31   -13.807583   -77.352713    13.511859    22.418106     433.6101     23.50154    22.156538    1.2325512    434.84265   -4731.7194 
   35100   -100825.75   -90549.737    249.53948    20724    226061.91    21.010555    25.979262    284.66264   -247.61023    433.73622     23.51246    22.166832    1.1694906    434.90571   -4723.8529 
   35200   -100871.72   -90554.962    250.52905    20724    226042.48    109.79477    278.63945    205.24047   -154.49562    433.99127     23.50454    22.159366    1.0419673    435.03323   -4724.6759 
   35300   -100831.42   -90505.804    250.74422    20724    225852.68   -95.144986   -197.12407   -62.358904   -25.951987    434.02643    23.493718    22.149163    1.0243828    435.05082   -4770.9914 
   35400   -100892.87   -90572.847    250.60834    20724    225943.24    53.555231    71.272822    59.501834    29.891036    433.72586    23.506569    22.161278      1.17467    434.90053   -4709.3841 
   35500   -100854.56   -90546.189     250.3253    20724    225915.78   -32.972075    -254.1906   -120.69591    275.97028    433.68791    23.506168    22.160901    1.1936425    434.88156   -4735.3125 
   35600   -100881.07   -90516.018    251.70176    20724    225859.52   -99.697436   -224.70978   -42.959505   -31.423025    433.81784    23.499721    22.154823     1.128682    434.94652   -4763.4246 
   35700   -100804.39   -90552.539    248.95285    20724    225786.09    86.920178    4.8559239    383.44571    -127.5411    433.78819    23.496704    22.151978    1.1435052    434.93169   -4740.9341 
   35800   -100799.55   -90517.549    249.68511    20724    225961.16    21.350797    146.65144   -175.37546    92.776411    433.57023    23.511719    22.166134    1.2524843    434.82272   -4767.2512 
   35900   -100862.76   -90473.319    252.29405    20724    226110.46   -71.974946   -177.36512    89.564404   -128.12412    433.64293    23.517514    22.171597    1.2161341    434.85907    -4805.597 
   36000   -100767.94   -90505.524    249.20949    20724    225937.24    17.293586   -216.57326    550.90842    -282.4544    433.55517    23.510883    22.165346    1.2600165    434.81518   -4784.3874 
[...]
  491300   -93271.102   -80409.819    312.31951    20724    220380.05   -91.513855   -152.39685   -285.68372    163.53901    420.66475    23.573024     22.22393    7.7052263    428.36997   -22573.386 
  491400   -93131.743   -80444.043    308.10428    20724    220031.55    80.563096    159.47346   -18.707206    100.92304    420.44943    23.560408    22.212037     7.812883    428.26232   -22561.107 
  491500   -93195.626   -80429.757     310.0025    20724    220169.72   -83.256245    -170.4045     50.60013   -129.96436    420.24305    23.573591    22.224465    7.9160762    428.15912   -22566.982 
  491600   -93126.705   -80409.005    308.83278    20724    220000.86    110.86835    203.05739    153.48049   -23.932835    420.26702    23.563877    22.215307    7.9040882    428.17111   -22600.603 
  491700   -93133.558   -80416.344    308.82098    20724    219918.19    32.138279    256.15675    -79.36899   -80.372926    420.45327    23.554231    22.206213    7.8109635    428.26424   -22595.026 
  491800   -93126.132   -80452.654    307.75889    20724     219940.7    74.342747    90.030503    339.63956   -206.64182    420.43582    23.555925     22.20781    7.8196901    428.25551    -22559.69 
  491900    -93107.93   -80439.503    307.63624    20724    219686.33    19.689256     121.0225   -29.285954   -32.668776    419.68309    23.563402    22.214859    8.1960527    427.87915   -22585.825 
  492000   -93193.709   -80402.003    310.62992    20724    219993.74   -19.110604    46.734505   -268.01131    163.94499     420.5515    23.555525    22.207433    7.7618482    428.31335   -22611.995 
  492100   -93111.244   -80356.229    309.73894    20724     220045.1   -59.046955    4.8888476    72.751929   -254.78164    420.61012    23.556633    22.208477    7.7325378    428.34266   -22653.951 
  492200   -93210.174   -80345.237    312.40825    20724    220219.77    114.46811      97.5359    146.76046     99.10796    420.45009    23.570465    22.221517    7.8125534    428.26265   -22668.853 
  492300   -93006.989   -80355.296    307.22989    20724    220179.53   -21.296581   -169.63387    -150.6723    256.41642    420.18898    23.575632    22.226389    7.9431083    428.13209    -22656.87 
  492400   -93207.062   -80383.059    311.41421    20724    219895.75    14.534418    56.483233    108.23014   -121.11012    420.02335     23.56508    22.216441    8.0259252    428.04927   -22643.512 
  492500    -93155.18   -80348.842    310.98524    20724    219684.73   -73.845627    136.82531   -333.24936   -25.112827    419.66774    23.563747    22.215185    8.2037286    427.87147   -22684.702 
  492600   -93167.047   -80379.803    310.52155    20724    219882.39   -107.59946   -16.187129   -181.07501   -125.53625    419.70813    23.573211    22.224107    8.1835341    427.89167   -22645.552 
  492700   -93256.532   -80328.669     313.9363    20724    219985.25    -84.52775    -75.89816    174.40019   -352.08528    419.64958    23.580369    22.230855     8.212809    427.86239   -22697.455 
  492800   -93038.837   -80321.716    308.81872    20724    220034.99    49.718491   -30.979176   -146.71499    326.84964    419.69532     23.58175    22.232157    8.1899392    427.88526   -22707.868 
  492900   -93155.182   -80334.126    311.34264    20724    219809.37   -40.742009   -247.60565    242.53017   -117.15054    419.26341    23.581793    22.232198    8.4058927    427.66931   -22702.093 
  493000    -93123.95   -80304.164    311.31182    20724    219876.05   -146.71569   -187.99855    1.9776986   -254.12622    419.19983    23.587159    22.237256     8.437687    427.63751    -22726.51 
  493100    -93093.71   -80347.219    309.53194    20724    219812.57   -69.044829    59.992721    -5.818966   -261.30824    419.35511    23.579387    22.229929     8.360045    427.71516   -22691.382 
  493200   -93145.303     -80399.2     309.5225    20724    219713.43     44.90587   -99.895699    161.55952    73.053786    419.42476    23.572112     22.22307    8.3252184    427.74998   -22651.629 
  493300    -93139.15    -80360.42    310.31481    20724    220146.79    58.559749   -188.94588    276.62736    87.997769    419.77282    23.585563    22.235752    8.1511917    427.92401   -22677.217 
  493400   -93050.712   -80373.307    307.85427    20724    220048.52    95.013417    170.10548   -45.977597    160.91236    420.01414    23.573523    22.224401    8.0305311    428.04467   -22671.537 
  493500   -93098.153   -80348.308    309.61337    20724    220460.47     116.0214    95.569862   -29.141755    281.63608    420.57592    23.579814    22.230332    7.7496379    428.32556   -22682.772 
  493600   -93009.942   -80319.225    308.17752    20724    220248.79   -96.034424   -194.81152   -27.304068   -65.987683    420.47615    23.571287    22.222293    7.7995263    428.27567   -22713.328 
  493700   -93115.924   -80305.816    311.07677    20724    220233.33   -57.569797    178.47949   -202.93867   -148.25021    420.54949    23.568404    22.219575    7.7628535    428.31235   -22727.353 
  493800   -93124.504   -80356.925    310.04403    20724    220433.11    -2.489324    4.9852075    44.684637   -57.137817    421.01832     23.56596     22.21727    7.5284395    428.54676   -22676.521 
  493900   -93073.602   -80332.961    309.38987    20724    220145.28    10.671183   -255.73524    172.70395    115.04484    420.75285    23.557998    22.209764     7.661173    428.41403   -22712.542 
  494000   -93212.615   -80349.958    312.35285    20724    220211.96    -61.39572    145.71247   -130.43515   -199.46448     420.5953    23.565978    22.217287    7.7399491    428.33525   -22693.106 
  494100   -93087.717   -80331.551    309.76689    20724    219707.76   -33.944563    105.52533   -107.59993   -99.759083    420.08331    23.553323    22.205357    7.9959452    428.07925   -22731.403 
  494200   -93151.569   -80378.639    310.17398    20724    219794.42   -11.676882   -20.766495   -135.45869    121.19454    419.92648    23.562367    22.213883    8.0743582    428.00084   -22684.814 
  494300   -93067.133   -80333.392    309.22232    20724    220162.56    30.447844   -173.17842    198.53028    65.991667    420.20037    23.574404    22.225232    7.9374157    428.13778   -22720.798 
  494400   -93248.572   -80351.153    313.19701    20724    220292.53   -15.834776   -36.935118   -67.664991    57.095782    419.80712    23.592404    22.242201    8.1340383    427.94116   -22698.775 
  494500   -93102.451    -80313.43    310.56471    20724    220234.67   -85.463482   -95.714386   -166.23777    5.5617141    420.04124    23.582731    22.233082    8.0169801    428.05822   -22735.623 
  494600   -92856.503   -80276.749    305.48293    20724    220470.36    119.53116    196.96095   -115.70696    277.33948    420.97524    23.569156    22.220284    7.5499783    428.52522   -22771.735 
  494700   -92914.669    -80256.33    307.39127    20724    220622.72    131.00959    98.739569    180.92726    113.36193    421.05812    23.574979    22.225773    7.5085417    428.56666   -22790.862 
  494800    -93144.81   -80265.185    312.76491    20724     220819.3   -11.433258   -68.214523    323.45167   -289.53692    421.55335    23.571621    22.222608    7.2609251    428.81427   -22771.712 
  494900   -93022.691   -80323.953    308.37229    20724    220554.78    41.240001   -65.077395    103.33978    85.457616    421.36797     23.56268    22.214179    7.3536158    428.72158   -22725.682 
  495000   -93080.044   -80297.352    310.41104    20724     220477.3    41.055087     210.8975   -57.135033   -30.597205    421.58763    23.552403     22.20449    7.2437864    428.83141   -22758.518 
  495100   -93006.522   -80304.509    308.45183    20724     220413.2    31.938083    179.64926    4.9129383   -88.747955    421.41708    23.553744    22.205754    7.3290583    428.74614   -22755.946 
  495200   -93124.184   -80331.768    310.64715    20724    220612.09    108.07202    128.23905    98.687372    97.289637    421.97535    23.548776     22.20107     7.049926    429.02527   -22728.843 
  495300     -93001.5   -80316.259    308.04454    20724    220522.61    130.16985     57.88391    285.58979    47.035843    421.67508    23.552381    22.204468    7.2000594    428.87514   -22746.676 
  495400   -93083.389    -80296.47    310.51367    20724    220218.84   -15.823821    6.6644179   -102.24712     48.11124    421.24514    23.548161     22.20049    7.4150324    428.66017   -22774.767 
  495500   -93076.739   -80370.924    308.54417    20724     220510.6    19.149328   -103.88291    381.87485   -220.54396    421.75438    23.549525    22.201776    7.1604081    428.91479   -22692.733 
  495600   -93089.316   -80339.149     309.6212    20724    220628.45    33.414992    222.83019   -229.10733    106.52212    421.60608    23.559959    22.211614    7.2345603    428.84064   -22723.536 
  495700   -93069.791   -80294.398    310.23378    20724    220755.97   -1.3921729   -146.77206    5.1779302    137.41761    421.14267     23.57973    22.230252    7.4662636    428.60894   -22763.846 
  495800   -92988.707    -80288.81    308.40044    20724    220584.64    64.626697    65.080251    64.333607    64.466233    420.60943    23.585514    22.235706    7.7328844    428.34232   -22777.892 
  495900   -93074.366   -80300.465    310.19754    20724    220713.12    90.914923   -6.0848306    111.59359    167.23601    420.82964    23.586208     22.23636    7.6227815    428.45242   -22767.418 
  496000   -93026.551    -80260.95    309.99599    20724     220491.9   -8.5966857   -55.773513   -11.838485    41.821941     420.9843    23.570055    22.221131    7.5454522    428.52975   -22814.551 
  496100   -93055.379   -80288.473    310.02769    20724    220921.51    101.31264   -29.010611    420.84444   -87.895913    421.39589     23.58148    22.231903    7.3396568    428.73554    -22777.15 
  496200   -92971.463   -80274.678    308.32486    20724    220800.91   -35.703877    128.19397   -490.24963    254.94402      421.634    23.568385    22.219557    7.2205981     428.8546   -22789.347 
  496300   -93114.275   -80302.371    311.12041    20724     220861.8   -30.177958   -77.402409   -176.64973    163.51827    421.69196    23.570015    22.221094    7.1916201    428.88358   -22764.056 
  496400   -93057.749   -80337.845    308.88629    20724    220703.31    -19.86813    217.55162   -80.255812    -196.9002     421.7025    23.561262    22.212841    7.1863483    428.88885   -22735.025 
  496500    -92992.28   -80344.659    307.13101    20724    220611.41    163.53337    110.01406    138.37687    242.20919     421.7951     23.55377    22.205778      7.14005    428.93515    -22741.37 
  496600   -93036.489   -80277.849    309.82696    20724    220868.84    102.08028    330.54362    154.77954   -179.08233    422.26028    23.554524    22.206489    6.9074603    429.16774   -22798.297 
  496700   -93023.168   -80344.627    307.88185    20724    220818.42    51.612776    98.020846   -59.143398    115.96088    422.38658    23.548313    22.200634    6.8443106    429.23089   -22733.606 
  496800   -93196.509   -80330.861     312.4255    20724    220559.82   -49.848036   -186.59522     146.8398   -109.78869    422.30464    23.536804    22.189783    6.8852785    429.18992    -22756.54 
  496900   -93247.286   -80298.181    314.45214    20724    220815.54   -120.66546    -215.0521   -8.5202614   -138.42401    422.32627    23.549841    22.202074    6.8744662    429.20073   -22777.982 
  497000    -92961.87   -80323.853    306.89778    20724    220508.38    66.416241    391.45501   -165.53085   -26.675445    422.04846      23.5412    22.193928    7.0133703    429.06183   -22772.654 
  497100   -93206.649   -80366.651    311.80263    20724    220656.58   -18.009017    7.1765415    69.989403     -131.193    422.39324    23.539497    22.192322    6.8409818    429.23422   -22721.992 
  497200   -93058.538   -80332.036     309.0465    20724    220828.04   -23.925711    97.464113    -202.1333    32.892055    422.01288    23.559251    22.210945    7.0311611    429.04404     -22752.5 
  497300   -92961.617   -80303.753    307.37973    20724    220222.16    35.191887    396.98067   -279.04863   -12.356377    421.93166    23.529173    22.182589     7.071769    429.00343    -22809.84 
  497400   -92999.237   -80304.832    308.26709    20724    220524.06    59.193614    187.83046    -22.31342      12.0638     422.2195    23.537269    22.190221    6.9278525    429.14735   -22800.116 
  497500   -93060.878    -80345.87    308.76742    20724    220485.96   -14.793004   -321.31858    73.261532    203.67803    421.77047     23.54776    22.200112    7.1523668    428.92283   -22759.393 
  497600   -92920.051   -80305.456      306.329    20724    220622.99    69.717942   -49.190681    100.22388    158.12063    421.59213    23.560058    22.211706    7.2415333    428.83367   -22799.149 
  497700   -92971.036   -80309.334    307.47296    20724    220431.78   -6.3872711    159.08104    -128.9774   -49.265454    421.58904    23.549932     22.20216    7.2430788    428.83212   -22800.065 
  497800   -92910.498   -80283.798    306.62297    20724    220248.39   -32.444564    74.126436   -91.433713   -80.026415    422.00693    23.528476    22.181932    7.0341354    429.04106   -22833.436 
  497900   -92979.169   -80276.064    308.47834    20724    220664.79    38.304927    105.23776      50.1914   -40.514373    422.53528    23.535978    22.189004    6.7699576    429.30524   -22831.328 
  498000   -93069.848   -80250.877    311.29202    20724     220801.2    32.105889    5.9365547    63.380159    27.000953    422.65941    23.539794    22.192602    6.7078958     429.3673   -22852.792 
  498100   -93006.849   -80312.563    308.26421    20724    220456.68    34.416305    229.96657   -73.410534   -53.307119     422.6429    23.521882    22.175715    6.7161503    429.35905   -22806.034 
  498200   -93029.661   -80245.919    310.43652    20724     220626.1   -34.205958   -108.80549    181.15809   -174.97047    422.50026     23.53489    22.187979    6.7874689    429.28773   -22867.895 
  498300   -92885.413   -80282.331    306.04941    20724    220315.76    14.790738   -22.312501    265.55526   -198.87054    422.02362    23.531609    22.184885    7.0257885    429.04941   -22844.172 
  498400   -92934.735   -80295.968    306.91599    20724    220413.49   -61.398725   -114.29278     23.54452   -93.447918    422.11137    23.534381    22.187499    6.9819174    429.09328   -22825.195 
  498500   -92981.299   -80273.212    308.59933    20724    220754.22    236.51874    182.71409    14.248024    512.59411    422.61396    23.538555    22.191435    6.7306215    429.34458   -22852.212 
  498600   -93191.403   -80273.719    313.68911    20724    220898.45   -173.52785    -282.0025      26.0864   -264.66746    422.97994    23.536055    22.189077    6.5476309    429.52757   -22830.566 
  498700   -93116.407   -80337.492     310.3193    20724    220299.11   -112.70584   -176.89452    55.442062   -216.66507    422.48572    23.517848    22.171912    6.7947406    429.28046   -22791.136 
  498800   -93094.381   -80310.589    310.43774    20724       220335     92.96058    87.970665   -22.038942    212.95002    422.55761    23.517762    22.171831    6.7587931    429.31641   -22829.943 
  498900   -93113.839    -80283.08    311.57825    20724    220647.93   -21.137717    33.281698   -95.589609   -1.1052385    422.55711    23.534471    22.187584    6.7590467    429.31615   -22843.305 
  499000   -93002.422   -80310.091    308.21674    20724    220636.11    18.346709    87.572279    -70.26815    37.735997    422.56415    23.533644    22.186805    6.7555226    429.31968   -22819.402 
  499100   -93086.975   -80298.984    310.53971    20724    220739.44    42.009991    -42.38476    325.87168   -157.45695    422.58433    23.538593    22.191469     6.745433    429.32977    -22829.16 
  499200   -93169.933   -80361.606    311.03355    20724    220425.97   -28.907116    56.852051    -311.8083     168.2349    422.58292    23.521912    22.175744    6.7461398    429.32906   -22777.138 
  499300   -93053.026   -80306.484    309.53316    20724     220145.1    -144.9228   -239.26394   -216.38611    20.881639    422.36258    23.513053    22.167391    6.8563124    429.21889   -22839.402 
  499400   -93046.228   -80302.574    309.46305    20724    220311.38     208.6428    174.10932    254.49112    197.32796    422.35709    23.522083    22.175905    6.8590572    429.21614   -22856.179 
  499500    -92961.36   -80278.605    307.98418    20724    220521.73    6.3689699    125.37596   -109.36636     3.097306     422.5258    23.528611    22.182059    6.7746989     429.3005   -22861.629 
  499600   -93089.879   -80310.396    310.33309    20724    220201.48   -70.667066   -9.7341567    123.75294   -326.01998     422.3982    23.515071    22.169294    6.8384995     429.2367   -22842.458 
  499700    -93050.41   -80288.656    309.90256    20724    220572.11    90.212744    156.37803   -169.03716    283.29735    422.49934    23.532035    22.185288    6.7879309    429.28727   -22858.752 
  499800   -93002.312   -80267.555    309.24698    20724    220682.23   -8.9445633   -176.19044   -87.012258    236.36901    422.16202    23.547311    22.199689    6.9565886    429.11861   -22872.401 
  499900   -93006.457   -80334.414    307.72407    20724    220372.47    -31.04606   -107.36851   -56.425481    70.655812    421.90852    23.537847    22.190766    7.0833385    428.99186   -22816.427 
  500000   -93049.825   -80354.696    308.28468    20724    220616.44    128.69066   -132.31572    52.390996    465.99671    421.54322    23.561075    22.212665    7.2659914    428.80921   -22797.453 
Loop time of 70954.6 on 32 procs for 500000 steps with 20724 atoms

Performance: 1.218 ns/day, 19.710 hours/ns, 7.047 timesteps/s
97.5% CPU use with 32 MPI tasks x no OpenMP threads

MPI task timing breakdown:
Section |  min time  |  avg time  |  max time  |%varavg| %total
---------------------------------------------------------------
Pair    | 13323      | 14650      | 16732      | 815.6 | 20.65
Bond    | 0.78916    | 0.87173    | 1.2061     |   8.6 |  0.00
Kspace  | 12918      | 15004      | 16331      | 807.0 | 21.15
Neigh   | 10581      | 12581      | 14515      |1455.5 | 17.73
Comm    | 391.73     | 1846       | 3408.7     |2115.5 |  2.60
Output  | 7.5785     | 30.698     | 43.5       | 208.7 |  0.04
Modify  | 25167      | 26759      | 29640      | 879.0 | 37.71
Other   |            | 82.64      |            |       |  0.12

Nlocal:    647.625 ave 691 max 599 min
Histogram: 3 3 1 8 3 1 0 4 4 5
Nghost:    7409.62 ave 7866 max 7002 min
Histogram: 6 3 7 0 1 1 2 4 4 4
Neighs:    238650 ave 271089 max 210243 min
Histogram: 2 7 8 1 0 0 2 4 4 4
FullNghs:  477297 ave 540598 max 424813 min
Histogram: 4 6 8 0 0 1 1 4 5 3

Total # of neighbors = 15273517
Ave neighs/atom = 736.997
Ave special neighs/atom = 2
Neighbor list builds = 500000
Dangerous builds not checked
write_data production.R1
PPPM initialization ...
  extracting TIP4P info from pair style
WARNING: Using 12-bit tables for long-range coulomb (../kspace.cpp:316)
  G vector (1/distance) = 0.345969
  grid = 400 48 48
  stencil order = 5
  estimated absolute RMS force accuracy = 0.000400506
  estimated relative force accuracy = 1.20611e-06
  using double precision FFTs
  3d grid and FFT values/proc = 67260 38400
write_restart restartproduction.R1
PPPM initialization ...
  extracting TIP4P info from pair style
WARNING: Using 12-bit tables for long-range coulomb (../kspace.cpp:316)
  G vector (1/distance) = 0.345969
  grid = 400 48 48
  stencil order = 5
  estimated absolute RMS force accuracy = 0.000400506
  estimated relative force accuracy = 1.20611e-06
  using double precision FFTs
  3d grid and FFT values/proc = 67260 38400
Total wall time: 19:42:35
