LAMMPS (30 Jul 2016)
# Sets up LAMMPS simulation for transient melting of ice: TIP4P/Ice
# Ensure cold thermostats do not move
# Thinbox: 16x1x1
# Defects
# Order param l=2

#### setting MD parameters ####
units real
boundary p p p
atom_style full

# read ice box in restart file
### read the equilibrated NPT restart file

read_restart restart.state
  orthogonal box = (0.455894 0.0246006 0.0231927) to (435.619 23.5066 22.1613)
  32 by 1 by 1 MPI processor grid
  20736 atoms
  13824 bonds
  6912 angles
  2 = max # of 1-2 neighbors
  1 = max # of 1-3 neighbors
  1 = max # of 1-4 neighbors
  2 = max # of special neighbors


#### force field definition ####
pair_style      lj/cut/tip4p/long 2 1 1 1 0.1577 10.0
pair_modify	tail yes

kspace_style	pppm/tip4p 1.0e-6

bond_style	harmonic
angle_style	harmonic
dihedral_style	none
improper_style	none

bond_coeff	1 450.0 0.9572
angle_coeff	1 55.0 104.52


# reset pair coeff
pair_coeff	* * 0.0 0.0

#OO
pair_coeff	2 2 0.21085 3.1668
#OH
pair_coeff	* 1 0.0000 0.0000

neighbor        2.0 bin
neigh_modify    every 1 delay 1 check no

timestep	2.0
fix		constraints all shake 0.000001 20 0 b 1 a 1
  0 = # of size 2 clusters
  0 = # of size 3 clusters
  0 = # of size 4 clusters
  6912 = # of frozen angles

group water type 1 2
20736 atoms in group water

#*********** SIMULATION PARAMETER TO ADJUST ****************
#Box dimensions
variable lx equal lx
variable ly equal ly
variable lz equal lz

### Temperature of the hot and cold regions ####
variable thi equal 375
variable tlo equal 215
variable runpressure equal 0.986923


# Configuration equilibrated in density and temperature

# Define dx here

variable lx equal lx
variable ly equal ly
variable lz equal lz

variable xlo equal xlo
variable xhi equal xhi

variable boxcentre equal ${xlo}+(${xhi}-${xlo})/2
variable boxcentre equal 0.455893892025589+(${xhi}-${xlo})/2
variable boxcentre equal 0.455893892025589+(435.619306107976-${xlo})/2
variable boxcentre equal 0.455893892025589+(435.619306107976-0.455893892025589)/2

variable dx equal 2.0

#### ADD IN DEFECTS AT THE CENTRE OF THE HOT THERMOSTAT #####
variable y1 equal ${ly}/2.0
variable y1 equal 23.4819987138366/2.0
variable z1 equal ${lz}/2.0
variable z1 equal 22.1381145231488/2.0

region kill1 sphere ${boxcentre} ${y1} ${z1} 3
region kill1 sphere 218.037600000001 ${y1} ${z1} 3
region kill1 sphere 218.037600000001 11.7409993569183 ${z1} 3
region kill1 sphere 218.037600000001 11.7409993569183 11.0690572615744 3
delete_atoms region kill1 compress no bond yes mol yes
Deleted 9 atoms, new total = 20727
Deleted 6 bonds, new total = 13818
Deleted 3 angles, new total = 6909
############


variable thip equal ${thi}*2.0/3.0
variable thip equal 375*2.0/3.0
variable tlop equal ${tlo}*2.0/3.0
variable tlop equal 215*2.0/3.0
variable hbl equal ${boxcentre}-${dx}
variable hbl equal 218.037600000001-${dx}
variable hbl equal 218.037600000001-2
variable hbh equal ${boxcentre}+${dx}
variable hbh equal 218.037600000001+${dx}
variable hbh equal 218.037600000001+2

#***************************************************
## EQUILIBRATION PERIOD - to reach the steady state ###
#run 0

#reset the timestep to start your production run
reset_timestep 0

# define a group to perform averages
#group s1 type 1
###*** SYSTEM THERMOSTATTING: HOT and COLD regions ***###

fix NVE all nve
fix PRESS all press/berendsen aniso ${runpressure} ${runpressure} 500000 couple yz
fix PRESS all press/berendsen aniso 0.986923 ${runpressure} 500000 couple yz
fix PRESS all press/berendsen aniso 0.986923 0.986923 500000 couple yz


### Apply THERMOSTATS ###

#set up the "hot region" in the middle of the box
region hot block ${hbl} ${hbh} 0 ${ly} 0 ${lz} units box
region hot block 216.037600000001 ${hbh} 0 ${ly} 0 ${lz} units box
region hot block 216.037600000001 220.037600000001 0 ${ly} 0 ${lz} units box
region hot block 216.037600000001 220.037600000001 0 23.4819987138366 0 ${lz} units box
region hot block 216.037600000001 220.037600000001 0 23.4819987138366 0 22.1381145231488 units box


#set up the "cold region" at the left end of the box
#region cold block ${cbl} ${cbh} 0 ${ly} 0 ${lz} units box

#set up the "cold region" at the right end of the box
#region cold2 block ${h2bl} ${xhi} 0 ${ly} 0 ${lz} units box


#Cold regions  unification
#region cold union 2 cold1 cold2 units box

#Create group of cold molecules
####group cool_ice region cold
####group cool_ice include molecule

####compute cold_temp cool_ice temp
####fix cold_rescale water temp/rescale 1 ${tlo} ${tlo} 0.0001 1.0
####fix_modify cold_rescale temp cold_temp

#this calculates the temperature using only the atoms in the "hot region"
#compute hot_temp all temp/region hot

# calculate the temperature using only WATER in the "hot region"
compute hot_temp water temp/region hot

#this calculates the temperature using only WATER in the "cold region"
#compute cold_temp water temp/region cold


#set up a basic velocity rescale for the hot region WATER with thip
fix hot_rescale water temp/rescale 1 ${thip} ${thip} 1.0 1.0
fix hot_rescale water temp/rescale 1 250 ${thip} 1.0 1.0
fix hot_rescale water temp/rescale 1 250 250 1.0 1.0
#change the thermostat to only act on the "hot region"
#this is done by passing it the "hot temp" compute that we defined above
fix_modify hot_rescale temp hot_temp

#set up a basic velocity rescale for the cold region
#fix cold_rescale water temp/rescale 1 ${tlop} ${tlop} 1.0 1.0
#change the thermostat to only act on the "cold region"
#this is done by passing it the "cold temp" compute that we defined above
#fix_modify cold_rescale temp cold_temp

### Ensure MOMENTUM CONSERVATION ###

#ensure that linear momentum is conserved despite the "thermostatting" by velocity rescaling
fix cons_mom all momentum 1 linear 1 1 1


thermo 100
thermo_style custom step pe etotal temp atoms vol press pxx pyy pzz lx ly lz xlo xhi  f_hot_rescale

group ox type 2
6909 atoms in group ox
group hy type 1
13818 atoms in group hy
compute KE all ke/atom
variable TEMP atom c_KE*4186.8/(1.3806488*6.02214129)

compute cc1 all chunk/atom bin/1d x center 2 units box
#fix TPROFILE all ave/chunk 1 500 500 cc1 v_TEMP density/number file temp.dat
fix TPROFILEox ox ave/chunk 1 500 500 cc1 v_TEMP density/number file temp-ox.dat
fix TPROFILEhy hy ave/chunk 1 500 500 cc1 v_TEMP density/number file temp-hy.dat

compute orderparam ox orientorder/atom degrees 1 2 nnn 4 cutoff 3.5
compute cc2 ox chunk/atom bin/1d x center 2 units box
#fix ORDERPARAM all ave/chunk 1 500 500 cc2 c_orderparam[1] file order-param.dat
fix ORDERPARAM all ave/chunk 1 500 500 cc2 c_orderparam[1] file order-param.dat

restart 50000 config.restart

run 500000
PPPM initialization ...
  extracting TIP4P info from pair style
WARNING: Using 12-bit tables for long-range coulomb (../kspace.cpp:316)
  G vector (1/distance) = 0.345607
  grid = 405 48 48
  stencil order = 5
  estimated absolute RMS force accuracy = 0.00040587
  estimated relative force accuracy = 1.22227e-06
  using double precision FFTs
  3d grid and FFT values/proc = 67260 38880
Neighbor list info ...
  2 neighbor list requests
  update every 1 steps, delay 1 steps, check no
  max neighbors/atom: 2000, page size: 100000
  master list distance cutoff = 12.3154
  ghost atom cutoff = 12.3154
  binsize = 6.1577 -> bins = 71 4 4
Memory usage per processor = 12.7928 Mbytes
Step PotEng TotEng Temp Atoms Volume Press Pxx Pyy Pzz Lx Ly Lz Xlo Xhi hot_resc 
       0   -103870.63   -95057.561    213.98286    20727    226218.47    114.51727    116.34877    -116.6792    343.88225    435.16341    23.481999    22.138115   0.45589389    435.61931            0 
     100   -103730.96   -94789.335    217.10436    20727     226434.4   -1.2508424    51.162203   -86.639086    31.724356    435.28365    23.489958    22.145618   0.39577534    435.67942   -259.60555 
     200   -103750.88   -94720.004    219.27125    20727    226353.24   -76.638261   -232.24365    83.773385   -81.444514    435.19342    23.488182    22.143944   0.44088784    435.63431   -327.28065 
     300   -103658.74    -94682.69    217.94007    20727    226304.58   -49.343223   -14.797136   -18.387501   -114.84503    435.10121    23.488146     22.14391   0.48699638     435.5882   -368.52342 
     400   -103657.13    -94659.22    218.47091    20727    226374.91    4.0064549    25.377257   -143.65643    130.29853    434.93592    23.496259    22.151559   0.56963987    435.50556   -393.48483 
     500   -103669.44   -94629.899    219.48169    20727    226251.74   -21.585801   -86.617379    120.95202    -99.09204    435.28421    23.480467     22.13667    0.3954939    435.67971   -425.40219 
     600   -103564.59   -94582.811    218.07916    20727       226406    64.451921    9.1779298   -153.67312    337.85095    435.25948    23.489137    22.144844   0.40786178    435.66734    -474.6668 
     700   -103532.65   -94514.863    218.95344    20727    226377.02    23.695889   -52.829361    86.677288     37.23974    435.17519    23.489908    22.145572   0.45000582    435.62519   -541.96941 
     800   -103565.52   -94491.053    220.32977    20727    226498.45    34.434683    166.79143   -64.857281    1.3698993    435.10325     23.49815    22.153341   0.48597313    435.58923   -564.86043 
     900   -103529.62   -94476.818    219.80365    20727    226408.91    11.613777     73.46781    196.78977   -235.41624    435.08573    23.493977    22.149408   0.49473283    435.58047   -580.49099 
    1000      -103552   -94466.715    220.59242    20727    226531.44   -53.490544  -0.21495505   -130.38583   -29.870845    435.30044    23.494538    22.149936   0.38737992    435.68782   -586.41141 
    1100   -103520.62   -94465.879    219.85069    20727    226481.08    -4.863426   -59.900643   -27.986789    73.297153    435.47112    23.487322    22.143133   0.30204148    435.77316   -590.93403 
    1200   -103432.48   -94377.548    219.85549    20727    226617.26     33.85452    146.13313    121.70779   -166.27736    435.37183    23.497061    22.152315   0.35168449    435.72352    -677.7003 
    1300   -103456.56   -94319.796     221.8423    20727    226660.76   -49.455609   -142.92778   -70.806524     65.36748    435.46025     23.49693    22.152191   0.30747557    435.76772   -730.87038 
    1400    -103459.2   -94323.711    221.81136    20727    226551.73   -20.363096   -26.194069   -67.525243    32.630023     435.2802    23.496136    22.151443   0.39749995     435.6777   -731.78594 
    1500   -103362.89    -94276.89    220.60974    20727    226600.09    29.350178     36.41404   -124.75047    176.38697    435.27921     23.49867    22.153832   0.39799287    435.67721    -779.5575 
    1600   -103414.12   -94259.772    222.26925    20727    226520.68    37.556472    205.44929   -52.614167   -40.165706    435.10356    23.499295    22.154421   0.48581822    435.58938    -802.0737 
    1700   -103492.44     -94280.6    223.66522    20727     226556.4   -64.650671   -127.00584    13.638136   -80.584312     435.0609    23.502299    22.157253   0.50715195    435.56805   -776.36322 
    1800   -103362.19   -94198.712    222.49086    20727    226412.42   -4.8840397    69.403902    103.61234   -187.66836    435.15552    23.492276    22.147803   0.45983776    435.61536   -864.76428 
    1900   -103427.76   -94182.267    224.48217    20727     226484.7   -45.411709   -161.42725   -182.39379    207.58591    435.15801    23.495958    22.151275   0.45859585     435.6166   -878.12681 
    2000   -103375.81   -94139.373     224.2624    20727    226454.74   -100.71848   -201.94821     -123.975    23.767775    435.03305    23.497778    22.152991   0.52107511    435.55412   -919.55803 
    2100   -103277.33   -94142.939    221.78461    20727    226387.53    15.655332    1.2454017   -25.161666    70.882261    435.31152    23.486775    22.142617   0.38184246    435.69336   -922.80099 
    2200   -103424.97   -94110.204     226.1641    20727     226568.5   -72.338194   -64.302644    -28.56963   -124.14231    435.44808    23.492476    22.147992   0.31356063    435.76164   -951.01975 
    2300   -103294.77   -94068.021    224.02713    20727    226589.49   -6.4167449    -52.87835    9.2434965    24.384619    435.42083    23.494299    22.149711   0.32718573    435.74801   -995.09127 
    2400   -103335.92   -94084.076    224.63644    20727    226703.73    14.790572   -135.56617    115.13223    64.805655    435.36611    23.501698    22.156686   0.35454428    435.72066   -977.45757 
    2500   -103340.11   -94045.307    225.67948    20727    226539.37   -40.352779    124.64281   -158.50126    -87.19988     435.4303    23.491445     22.14702   0.32245009    435.75275   -1020.0098 
    2600   -103341.61   -94034.991    225.96631    20727    226551.37   -80.081155   -87.615468    30.942081   -183.57008    435.37728    23.493498    22.148955   0.34896133    435.72624    -1027.098 
    2700   -103227.67   -94025.739    223.42445    20727    226606.72    66.237859   -133.14899    267.27411    64.588455     435.4737    23.493766    22.149208    0.3007501    435.77445   -1043.5885 
    2800    -103262.4   -93987.056    225.20698    20727    226500.53   -52.991042    49.360759   -119.27563   -89.058259     435.3632    23.491241    22.146828   0.35599776     435.7192   -1081.7383 
    2900   -103299.01   -93954.198    226.89378    20727    226645.49    1.6962993    61.676959    -142.8419    86.253837    435.32818    23.499703    22.154805    0.3735112    435.70169   -1114.7504 
    3000   -103130.44   -93938.275    223.18752    20727    226520.39    9.9538781   -48.484211   -33.440726    111.78657    435.40604    23.491115    22.146709   0.33457779    435.74062    -1132.139 
    3100   -103238.25   -93945.285     225.6348    20727    226558.32   -3.5567455    101.58351   -7.5733203   -104.68043    435.40161    23.493201    22.148676   0.33679478    435.73841   -1125.7982 
    3200   -103269.38   -93944.319    226.41406    20727    226584.05   -65.927742   -70.720316   -94.395973   -32.666938    435.45403    23.493121    22.148601   0.31058476    435.76462    -1124.316 
    3300   -103208.61   -93922.292    225.47351    20727    226713.09    56.379968    236.85587   -31.076732   -36.639231    435.49737    23.498641    22.153804   0.28891415    435.78629   -1148.6018 
    3400   -103153.99    -93910.73      224.428    20727    226580.69   -59.505716     32.83714   -90.460048   -120.89424    435.58595     23.48939    22.145082   0.24462288    435.83058   -1157.9196 
    3500   -103190.89   -93874.868    226.19474    20727    226635.64    17.469997   -7.3841306    63.619775   -3.8256536    435.51906    23.494041    22.149468   0.27806798    435.79713   -1196.7675 
    3600   -103184.35   -93896.269    225.51631    20727    226446.97   -27.996599      70.8319   -186.57585    31.754149    435.18227    23.493346    22.148812   0.44646311    435.62874   -1181.1125 
    3700   -103235.08   -93828.355    228.39703    20727    226592.35   -32.558868   -37.569566   -114.96966     54.86262    435.44955    23.493673    22.149121   0.31282748    435.76237   -1246.4993 
    3800   -103143.22   -93832.745    226.06008    20727       226526   -40.110525    84.780734    36.160336   -241.27264    435.53469    23.487937    22.143713   0.27025325    435.80495   -1244.0069 
    3900   -103142.96   -93786.206    227.18377    20727    226552.91    31.571921    12.170154    37.354691    45.190919    435.36007    23.494042    22.149469   0.35756612    435.71763   -1293.2873 
    4000   -103123.13   -93747.473    227.64267    20727    226570.89   -6.4403856    -194.9223   -61.176184    236.77733    435.26694    23.497487    22.152717   0.40413243    435.67107   -1330.1784 
    4100   -103146.12   -93756.378    227.98472    20727    226737.54     30.74842    110.79893   -133.05985    114.50619     435.4118    23.502217    22.157176   0.33170083     435.7435    -1321.503 
    4200   -103037.37   -93727.815    226.03774    20727    226492.99    52.635643    115.41897    110.34537   -67.857405    435.36217    23.490878    22.146486   0.35651296    435.71869   -1356.5794 
    4300   -103127.31   -93745.255    227.79805    20727    226667.22    -14.70386    86.631394    215.06836   -345.81133    435.40477    23.498762    22.153918     0.335214    435.73999   -1334.0043 
    4400   -103146.42   -93717.127    228.94503    20727    226505.34    34.965217    75.575832    185.61809   -156.29827    435.35894    23.491606    22.147172   0.35813181    435.71707   -1372.7385 
    4500   -103060.87   -93625.677    229.08821    20727    226579.87   -110.63911    50.619235   -105.01759   -277.51899    435.53771    23.490648    22.146269    0.2687454    435.80645   -1454.2802 
    4600   -103030.52    -93644.32    227.89865    20727    226605.14    78.773704    34.102377    128.61365    73.605085    435.26798    23.499235    22.154365   0.40360811    435.67159   -1444.8789 
    4700   -103023.39   -93627.901    228.12421    20727    226556.35     16.48358    34.742046   -252.74454    267.45323    435.32084    23.495279    22.150635   0.37717818    435.69802   -1460.3299 
    4800   -103056.07   -93597.114    229.66506    20727    226567.21   -24.160123    125.75682   -166.41458   -31.822608    435.56928     23.48914    22.144848   0.25296004    435.82224   -1491.9926 
    4900   -102982.12   -93604.444     227.6918    20727    226766.49    40.399427    169.00905    128.95091   -176.76168    435.61877    23.498133    22.153326    0.2282152    435.84698    -1481.632 
    5000   -102932.27   -93554.105     227.7036    20727    226743.69    47.511432   -0.8137996    15.270973    128.07712    435.46018     23.50123    22.156245   0.30750829    435.76769   -1534.5414 
    5100   -102927.18   -93562.786    227.36925    20727    226681.14    29.578347    132.25043   -3.5948059   -39.920585    435.36462    23.500567     22.15562   0.35529076    435.71991   -1526.1623 
    5200   -102951.59   -93564.942    227.90961    20727    226622.57    3.6360182    93.419386    49.257472    -131.7688    435.33324    23.498378    22.153556   0.37097768    435.70422   -1526.3535 
    5300   -102937.14    -93531.23     228.3771    20727     226656.3    3.6621916    154.63845     99.58335   -243.23523    435.51452    23.495235    22.150593   0.28033914    435.79486   -1558.9712 
    5400   -103049.01   -93551.628    230.59814    20727    226558.28   -89.668019   -192.18925   -89.676604    12.861801    435.30408    23.495831    22.151155   0.38556025    435.68964   -1539.8852 
    5500   -102990.46   -93495.145      230.548    20727     226591.8   -67.399788   -223.88488   -29.553616    51.239135    435.19994    23.500381    22.155444   0.43762822    435.63757   -1596.9415 
    5600   -102920.85   -93470.147    229.46476    20727    226551.76   -30.795006       -47.18   -317.59517    272.39015    435.48894    23.490506    22.146135   0.29313198    435.78207     -1625.16 
    5700   -102920.48   -93469.859     229.4628    20727    226790.98     22.67889      126.902   -169.72511    110.85978    435.50895    23.502365    22.157315   0.28312464    435.79208   -1621.6853 
    5800   -102891.61   -93391.981    230.65268    20727    226610.48     12.95889   -17.030743   -41.714399    97.621813    435.31805    23.498161    22.153352    0.3785757    435.69662   -1706.5372 
    5900    -102856.4   -93393.158    229.76919    20727    226833.57    19.564406    12.069034    147.60676   -100.98258     435.6178    23.501635    22.156627    0.2286979     435.8465   -1699.0499 
    6000   -102963.67   -93412.318    231.90845    20727    226646.68   -75.293616    78.282904    8.8872912   -313.05104    435.38597    23.498205    22.153393   0.34461418    435.73059   -1682.3777 
    6100   -102950.94   -93417.385    231.47637    20727    226668.16   -37.852145    25.110997    170.69178   -309.35921     435.2855     23.50203    22.156999   0.39484792    435.68035   -1678.9036 
    6200   -102924.77   -93444.962    230.17135    20727    226613.04   -49.462017    134.28377   -166.41999   -116.24983     435.3876    23.496417    22.151708   0.34380089     435.7314   -1652.8611 
    6300   -102873.13   -93425.382    229.39312    20727    226621.97   -10.354878   -19.570986   -58.586851    47.093204    435.37449    23.497233    22.152477   0.35035342    435.72485   -1674.8953 
    6400   -102841.76   -93372.196    229.92283    20727     226697.7   -16.690407   -42.013781    20.820168   -28.877608    435.39013    23.500737    22.155781   0.34253645    435.73266   -1727.6182 
    6500   -102835.78   -93390.498    229.33305    20727    226591.19   -49.339886  -0.10014012   -58.239178    -89.68034      435.428    23.494194    22.149612   0.32360135     435.7516    -1710.294 
    6600   -102850.14   -93392.351    229.63672    20727    226648.49    25.957617    69.722805    102.81053   -94.660488    435.36649    23.498824    22.153977    0.3543531    435.72085   -1711.2812 
    6700    -102920.8   -93366.539     231.9791    20727    226805.88   -44.686433   -8.7922666   -20.017357   -105.24968     435.4868    23.503734    22.158606   0.29420179      435.781   -1731.1663 
    6800   -102916.49   -93403.794    230.97011    20727     226440.1   -5.2667501    12.156864   -300.62392     272.6668    435.27293    23.490543     22.14617   0.40113684    435.67406   -1706.6591 
    6900   -102892.34   -93377.334    231.02619    20727    226530.82    50.277605    87.796483   -38.478668      101.515    435.30924    23.494268    22.149682   0.38297961    435.69222   -1734.3209 
    7000   -102876.71   -93380.824    230.56191    20727    226541.78    2.9013892    47.876559   -108.59821    69.425816    435.20013    23.497781    22.152994    0.4375336    435.63767   -1728.6002 
    7100   -102817.76   -93331.001    230.34016    20727    226482.67   -43.978753    132.98917   -22.213151   -242.71228     435.2176    23.494244    22.149659   0.42879974     435.6464   -1778.1107 
    7200    -102707.5   -93265.467    229.25431    20727     226474.6    46.340737   -120.52515    187.22519    72.322174    435.11951    23.496474    22.151761   0.47784454    435.59736   -1848.6146 
    7300   -102781.85   -93278.705    230.73817    20727    226322.38    7.8273955    -99.97515    218.46319    -95.00585    434.95849    23.492924    22.148414   0.55835738    435.51684   -1838.7552 
    7400   -102760.35   -93196.532    232.21128    20727    226759.49    45.671362    131.49113    8.5323436   -3.0093827    435.22632    23.508363     22.16297   0.42444028    435.65076   -1911.8844 
    7500   -102700.86   -93218.975    230.22183    20727    226411.73    26.823884    129.40882   -301.08887    252.15171    435.15181     23.49234    22.147864   0.46169748     435.6135   -1899.2192 
    7600   -102730.11   -93197.524    231.45291    20727    226685.34    20.432769    114.24846    82.582278   -135.53243    435.19692    23.505312    22.160094   0.43914204    435.63606   -1914.3201 
    7700   -102694.45   -93178.371    231.05214    20727    226612.86   -43.709226    12.929993   -333.14749    189.08982    435.16898    23.502308    22.157262   0.45310851    435.62209   -1933.1381 
    7800   -102697.88   -93214.049    230.26923    20727    226706.84    46.414648    85.761889     141.7103   -88.228247    435.41932    23.500423    22.155485    0.3279422    435.74726   -1901.5414 
    7900   -102680.77   -93184.308    230.57595    20727    226666.45    23.821081    84.984402   -201.69065    188.16949    435.45173    23.497455    22.152686   0.31173449    435.76347   -1932.5607 
    8000   -102721.76   -93215.549    230.81253    20727     226597.7    18.260627   -85.491388     42.57154    97.701729    435.23062    23.499858    22.154952   0.42229065    435.65291   -1904.3502 
    8100   -102644.45   -93203.793    229.22086    20727     226768.6     81.05186    171.59471   -38.867163    110.42803    435.58363     23.49919    22.154322   0.24578329    435.82942   -1913.1129 
    8200   -102784.52   -93151.784    233.88448    20727    226801.98   -54.159111    -47.83786   -221.55081    106.91133    435.54862    23.501864    22.156843     0.263289    435.81191    -1959.399 
    8300   -102712.86    -93160.89    231.92346    20727    226744.07    12.634146   -135.12504    31.653779     141.3737    435.56577    23.498401    22.153578   0.25471271    435.82049    -1955.831 
    8400   -102683.15   -93111.644    232.39782    20727    226751.62   -58.929393   -93.456712   -35.284957    -48.04651    435.52196    23.499974    22.155061   0.27662007    435.79858   -2002.3981 
    8500   -102791.03   -93154.869    233.96765    20727    226642.05   -15.785249    39.627193   -35.447378   -51.535563     435.4308    23.496755    22.152026   0.32219875      435.753   -1965.4761 
    8600   -102670.87   -93162.615    230.86217    20727    226488.76    1.0743748   -11.687533   -272.66808    287.57874    435.19162    23.495261    22.150618   0.44178886    435.63341   -1963.0015 
    8700   -102692.21   -93138.372    231.96881    20727    226758.07   -9.9927148   -91.837985   -30.573679     92.43352    435.35742    23.504749    22.159563   0.35888943    435.71631    -1980.888 
    8800   -102655.27   -93130.036    231.27444    20727    226556.95    35.897953   -10.686749   -11.121932    129.50254    435.04886    23.502654    22.157587   0.51317163    435.56203   -1998.3036 
    8900   -102706.26   -93080.212    233.72221    20727    226643.69   -39.631697    65.511264     17.52317   -201.92952    435.39753    23.497738    22.152953   0.33883621    435.73636   -2043.8091 
    9000   -102696.51   -93103.497     232.9201    20727    226575.62    66.500018   -126.40391   -3.9692341     329.8732    435.18167    23.500035    22.155118   0.44676554    435.62843   -2026.7336 
    9100   -102585.21   -93079.867    230.79149    20727    226532.44   -6.3344595   -33.790897   -9.9281035    24.715622    435.14302    23.498839    22.153991   0.46609088    435.60911   -2048.1397 
    9200   -102633.41   -93089.643    231.72433    20727    226549.07    84.810827    52.351429    44.384618    157.69643    435.20493     23.49803    22.153228   0.43513471    435.64007   -2045.0984 
    9300   -102553.79   -93091.092    229.75595    20727    226672.79    38.853035    163.66956   -251.53572    204.42527    435.27893    23.502448    22.157393   0.39813572    435.67706   -2037.4582 
    9400   -102759.54   -93096.753    234.61417    20727    226674.32   -107.51574   -293.40949   -150.94175    121.80403    435.12461    23.506694    22.161396   0.47529361    435.59991   -2029.0257 
    9500   -102713.81   -93124.141    232.83895    20727    226424.48   -10.541544   -110.23871     135.3513   -56.737223     434.9885    23.497411    22.152645   0.54335101    435.53185   -2011.2317 
    9600    -102613.6   -93050.844    232.18555    20727    226549.01    77.571713    87.491275    205.71311   -60.489245    434.94618    23.505015    22.159814   0.56451105    435.51069    -2087.712 
    9700   -102531.28   -93003.048    231.34713    20727    226533.34    40.957757     132.2664   -179.92416    170.53102    435.14466    23.498841    22.153993   0.46527172    435.60993   -2131.1703 
    9800   -102582.37    -92928.93    234.38734    20727    226585.26   -26.439878   -7.1223795   -169.82609     97.62883    435.12044    23.502188    22.157148   0.47738136    435.59782   -2205.3951 
    9900   -102552.92   -92930.215    233.64102    20727    226658.26   -88.110535     -57.6507    18.558998    -225.2399    435.13142    23.505677    22.160438   0.47188968    435.60331   -2198.9031 
   10000   -102588.45   -92918.782    234.78141    20727    226661.64    23.855064    103.13865   -1.2843405   -30.289116     435.1488    23.505383    22.160161    0.4632014      435.612    -2217.217 
   10100   -102458.05   -92955.423    230.72549    20727    226620.59     13.44476   -153.65018   -128.68369    322.66815    435.12924    23.503783    22.158652   0.47297798    435.60222   -2180.3317 
   10200   -102484.34   -92973.859    230.91631    20727    226490.19    59.168989    34.959583   -56.476797    199.02418    435.20647    23.494935     22.15031   0.43436294    435.64084   -2169.8149 
   10300   -102552.94   -92938.549    233.43913    20727    226669.17    14.940224   -25.934825    96.959284   -26.203787     435.2914    23.501923    22.156899   0.39189814     435.6833   -2200.0076 
   10400   -102531.24   -92951.246    232.60399    20727    226581.64    30.267028    78.981325    101.06791   -89.248155     435.2503    23.498494    22.153666    0.4124489    435.66275   -2190.7104 
   10500   -102638.93   -92947.468    235.31035    20727    226489.35  -0.95418662   -67.364963    75.087307   -10.584904    435.34953    23.491031     22.14663   0.36283535    435.71236   -2195.8835 
   10600   -102526.75    -92938.75    232.79833    20727    226685.47    3.3948318    -57.20259    103.41435   -36.027265    435.39733    23.499909       22.155   0.33893729    435.73626     -2201.13 
   10700   -102604.98   -92920.024    235.15255    20727    226752.75   -22.416056    65.203432    48.276897    -180.7285    435.36512    23.504265    22.159107   0.35503772    435.72016   -2217.2281 
   10800   -102498.84   -92870.809    233.77026    20727    226666.73   -97.518251   -146.48202   -97.506847   -48.565884    435.08994    23.507237    22.161908   0.49263142    435.58257   -2264.9639 
   10900   -102504.04   -92850.803    234.38242    20727    226618.72   -18.094792    178.86992   -370.60003    137.44573     435.2966    23.499167    22.154301   0.38929989     435.6859   -2290.8727 
   11000   -102432.81   -92862.233    232.37528    20727    226929.69    68.370464    151.13892    55.747644   -1.7751759    435.52239    23.509188    22.163748   0.27640469     435.7988   -2278.2788 
   11100   -102436.27   -92852.795    232.68855    20727    226631.56    14.517702   -155.73428    277.81215   -78.524761    435.09339     23.50532    22.160101    0.4909039     435.5843   -2293.7643 
   11200   -102380.84   -92823.002    232.06613    20727    226752.04    20.977869   -11.053981    110.20681   -36.219222    435.35501    23.504501    22.159329   0.36009412    435.71511   -2321.5157 
   11300   -102441.54   -92801.361    234.06539    20727    226786.38   -21.526749   -122.55372   -71.791852    129.76533    435.07938    23.513726    22.168026   0.49790887    435.57729    -2340.826 
   11400   -102429.49   -92777.421    234.35387    20727    226896.94    71.308758    84.737187   -52.303489    181.49258    435.26612    23.514411    22.168671   0.40453787    435.67066   -2368.3146 
   11500   -102377.32   -92768.537    233.30296    20727     226768.4    -3.113353   -117.07253    238.28439   -130.55192    435.27496    23.507511    22.162166   0.40011821    435.67508   -2376.9142 
   11600   -102459.17   -92749.567    235.75093    20727    226732.11   -49.900971   -11.767797   -245.17374    107.23863    435.15385      23.5089    22.163477   0.46067636    435.61452   -2395.6529 
   11700   -102348.45   -92760.869    232.78819    20727    226777.17    41.600384    45.518916    90.523076   -11.240841    435.33668    23.506299    22.161024   0.36926216    435.70594   -2388.5986 
   11800   -102397.83   -92734.552    234.62611    20727    226632.41   0.31813677   -313.68395    190.56847    124.06989     435.1772    23.503101    22.158009    0.4490008     435.6262   -2417.9917 
   11900    -102360.9   -92720.477    234.07132    20727    226668.86    40.395016    38.725525   -40.847598    123.30712    435.26143    23.502716    22.157646   0.40688348    435.66832   -2435.3794 
   12000   -102407.79   -92692.305    235.89372    20727    226565.09   -20.767618   -94.690341    165.59113   -133.20364    435.21344    23.498631    22.153795   0.43087968    435.64432   -2464.2102 
   12100   -102340.68   -92675.558    234.67102    20727    226534.85    -49.29789    22.008026   -220.26162    50.359926    435.11362    23.499758    22.154857   0.48079118    435.59441    -2480.736 
   12200   -102473.94   -92731.291    236.55338    20727    226482.42   -5.0436143     173.0618    130.31385   -318.50649    435.09767    23.497469    22.152699    0.4887639    435.58644   -2432.0889 
   12300   -102441.55   -92709.818     236.2883    20727    226390.08   -1.3051333    8.1130958   -214.24587    202.21738    434.92277    23.497401    22.152636   0.57621595    435.49898   -2457.3764 
   12400   -102314.55   -92734.693    232.60074    20727    226346.07    71.630377   -56.401624    204.13136    67.161399    434.76163    23.499471    22.154587   0.65678546    435.41841   -2435.6532 
   12500   -102361.28   -92727.925     233.8997    20727    226325.68   0.19626934    135.93037   -4.7008675   -130.64069    434.88688    23.495029    22.150399    0.5941603    435.48104   -2442.8986 
   12600   -102325.88   -92724.135     233.1322    20727    226477.27    36.937624   -20.617037    82.309243    49.120666    434.82532    23.504559    22.159384   0.62494082    435.45026   -2443.7767 
   12700   -102330.64    -92687.93     234.1268    20727    226341.33   -40.461443   -2.0737283     4.691404     -124.002    434.67112    23.501672    22.156662   0.70203976    435.37316   -2481.9934 
   12800   -102311.66   -92670.648    234.08556    20727    226308.24    36.144026   -45.693199    344.36949   -190.24421    434.46397    23.505555    22.160323   0.80561469    435.26959   -2504.1964 
   12900   -102334.93   -92675.247    234.53893    20727    226221.26    76.341187    138.01106    236.12596   -145.11346    434.61795    23.496875    22.152139   0.72862484    435.34658   -2504.8977 
   13000   -102323.96   -92677.976    234.20628    20727    226258.19    15.985399    67.108516    172.75801   -191.91033    434.64264    23.498125    22.153318   0.71628216    435.35892   -2498.8442 
   13100   -102344.72   -92643.694     235.5426    20727    226484.36   -49.870173    37.061094   -107.49199   -79.179623    434.79786    23.505669    22.160431   0.63866797    435.43653   -2525.6347 
   13200   -102368.77   -92667.514    235.54823    20727    226374.92   -8.1102586    72.560933   -129.91457    33.022859    434.51722    23.507578     22.16223   0.77899126    435.29621   -2507.4085 
   13300   -102402.02   -92656.761     236.6167    20727    226247.15   -87.710051   -84.765557   -107.79543   -70.569169    434.61261    23.498363    22.153542   0.73129378    435.34391   -2518.8327 
   13400   -102387.84   -92679.201    235.72754    20727    226332.42   -46.229854    68.765992   -25.808975   -181.64658    434.70433    23.500312    22.155379   0.68543733    435.38976   -2498.2822 
   13500   -102261.63   -92676.608    232.72601    20727    226227.24    92.927774   -67.203275    300.49756    45.489034    434.56914    23.498504    22.153675   0.75302966    435.32217   -2509.7403 
   13600   -102305.78   -92678.236     233.7584    20727    226287.12   -4.2925147   -43.774713   -79.850307    110.74748    434.61818    23.500288    22.155357   0.72850754    435.34669    -2504.792 
   13700    -102358.1   -92651.933    235.66761    20727     226141.4   -85.798389   -164.03312    14.937002   -108.29905    434.56111    23.494263    22.149677   0.75704478    435.31816   -2530.3468 
   13800   -102368.77   -92631.119    236.43184    20727    226241.18    -45.15858    -109.1863   -209.47399    183.18455    434.63393    23.497477    22.152707    0.7206335    435.35457   -2551.5754 
   13900   -102296.51   -92650.422     234.2088    20727    226232.78     49.24734   -101.58156   -131.79896    381.12254    434.59805    23.498011     22.15321     0.738574    435.33663   -2537.8461 
   14000   -102302.16   -92592.925    235.74199    20727    226284.99   -49.947001   -127.87445    39.319474   -61.286022    434.56418    23.501638     22.15663    0.7555117    435.31969   -2591.6579 
   14100   -102321.78   -92632.535    235.25659    20727     226180.7    23.850935   -90.954257    8.0617713    154.44529     434.5406    23.496859    22.152124    0.7673014     435.3079   -2558.0343 
   14200   -102273.57   -92606.946    234.70735    20727    226163.41   -69.755678    26.234483   -362.34563    126.84411    434.42856    23.498991    22.154134   0.82331945    435.25188   -2578.8536 
   14300   -102364.97   -92570.831    237.80336    20727    226338.67   -82.460114   -102.59156   -340.13795    195.34916    434.88233    23.495826     22.15115   0.59643587    435.47876   -2612.4202 
   14400   -102154.63   -92543.863    233.35107    20727    226292.83    65.795915   -207.47794    25.184384     379.6813    434.39149    23.506716    22.161417   0.84185643    435.23334   -2647.8664 
   14500   -102236.98   -92502.508    236.35464    20727    226393.66    -32.00189   -93.944886   -35.335784       33.275    434.61702    23.505851    22.160602   0.72908799    435.34611   -2684.4345 
   14600   -102125.41   -92497.736     233.7616    20727    226214.23    34.547512    53.628885    127.64004   -77.626386    434.60873    23.496759     22.15203     0.733237    435.34196   -2697.5292 
   14700   -102239.65   -92490.327    236.71535    20727    226195.48   -49.967067    118.62643   -173.23932   -95.288319    434.54738    23.497443    22.152675   0.76391061    435.31129   -2703.6785 
   14800   -102100.38   -92441.842      234.511    20727    226083.66   -13.322897    21.191335    -246.5551    185.39507    434.40589     23.49546    22.150805   0.83465274    435.24055   -2756.2748 
   14900   -102176.77   -92410.462    237.12774    20727    226234.65     33.75864    147.17739   -173.35084    127.44937    434.35615     23.50465    22.159469   0.85952622    435.21567   -2787.5765 
   15000   -102153.85   -92433.621    236.00899    20727    226084.94    25.310894   -5.5893134    136.22061   -54.698617    434.38217    23.496168    22.151473   0.84651519    435.22868   -2768.6186 
   15100   -102130.87   -92366.777    237.07389    20727    226250.21   -41.602128     23.22018    63.786779   -211.81334    434.43324    23.503373    22.158265   0.82098093    435.25422   -2827.5243 
   15200    -102113.7    -92410.26    235.60141    20727    226082.44    42.983385     214.6719   -83.485753     -2.23599    434.68534    23.487843    22.143624   0.69492766    435.38027   -2794.8344 
   15300   -102063.22   -92369.107     235.3749    20727    226187.42    22.942307   -158.89148   -12.061271    239.77968    434.40222     23.50095    22.155981   0.83649182    435.23871   -2831.5505 
   15400   -102129.75   -92404.504    236.13064    20727    226132.33    22.633083    41.202131   -173.76842    200.46554     434.4377    23.497129    22.152379   0.81875023    435.25645   -2801.3136 
   15500   -102077.73   -92372.549    235.64356    20727     226022.8    68.677863    95.355928     343.5797   -232.90204     434.3598    23.493544    22.148999    0.8576993     435.2175   -2837.3662 
   15600    -102140.3   -92370.951    237.20158    20727    226239.65    47.021636    89.675806    197.18667   -145.79757     434.5234    23.500386    22.155449   0.77589767     435.2993   -2833.6758 
   15700   -102035.83   -92331.035    235.63429    20727    226326.51    93.551614   -35.091689    73.097941    242.64859    434.35748    23.509386    22.163934   0.85886212    435.21634   -2875.1954 
   15800   -102020.37   -92325.583     235.3912    20727    226215.66   -37.912644   -250.08468    90.008037     46.33871    434.37361    23.503191    22.158094   0.85079383    435.22441   -2877.6789 
   15900   -102146.09   -92298.757    239.09509    20727    226285.17   -78.995416   -74.257266   -180.25747    17.528488    434.48187    23.503873    22.158737   0.79666718    435.27853   -2902.6547 
   16000   -102109.34   -92335.731    237.30499    20727    226186.36    60.181249   -84.937079    214.14295    51.337878    434.48606    23.498628    22.153792   0.79457155    435.28063   -2875.8312 
   16100   -102082.34   -92323.617    236.94369    20727    226182.75    2.2481815   -49.522161    14.802343    41.464363    434.33133    23.502625    22.157561   0.87193475    435.20327    -2885.271 
   16200   -102039.31   -92286.028    236.81134    20727    226123.04   -19.777836    59.122305   -119.11554   0.65972726    434.18731     23.50342     22.15831   0.94394413    435.13126   -2924.3837 
   16300   -102189.33   -92334.368    239.28016    20727    226298.95   -62.221861   -128.48905   -122.74054    64.564013    434.44094    23.505696    22.160456   0.81713134    435.25807   -2871.9016 
   16400   -102039.06   -92295.945    236.56451    20727    226274.19    74.843422    180.24828   -126.96815    171.25013    434.34589    23.506982    22.161668   0.86465565    435.21054   -2917.4281 
   16500   -102153.93   -92310.611    238.99754    20727    226504.05    23.170747    168.31385   -122.23953    23.437914    434.45125    23.516066    22.170232   0.81197278    435.26323   -2895.6517 
   16600   -102069.21   -92286.006    237.53803    20727    226359.51   -21.228893    24.712084   -148.12913    59.730369    434.37552    23.510611    22.165089   0.84984211    435.22536   -2921.9092 
   16700   -102001.53   -92250.313    236.76123    20727    226334.09     55.23457    50.363036    55.002581    60.338094    434.45594    23.507115    22.161794   0.80963002    435.26557   -2961.6152 
   16800   -102066.69   -92230.798     238.8172    20727    226664.22    -49.79404   -26.251486   -46.394513   -76.736122    434.84135    23.513825     22.16812   0.61692685    435.45827   -2968.6517 
   16900   -102078.92   -92237.557    238.94998    20727    226326.35   -38.322556   -19.130012   -172.63152    76.793862    434.75371    23.498662    22.153824    0.6607462    435.41445   -2972.6344 
   17000   -101907.36   -92184.508    236.07259    20727    226319.99   -4.0237577    95.417177    8.2008978   -115.68935    434.85838    23.495503    22.150846   0.60840856    435.46679   -3027.0625 
   17100   -102046.96   -92191.972    239.28082    20727    226485.38   -49.162778  -0.42099715    82.707377   -229.77471    434.91665    23.502512    22.157454   0.57927378    435.49593   -3016.4737 
   17200   -102035.99   -92160.178    239.78655    20727    226441.61   -9.0700426   -33.838478    111.75341   -105.12506    434.84186    23.502262    22.157218   0.61666887    435.45853   -3052.8107 
   17300   -101904.44   -92150.899    236.81784    20727    226583.19   -34.559349   -136.88308    116.78506   -83.580029    434.93727    23.507029    22.161712   0.56896253    435.50624   -3054.3554 
   17400   -102071.26   -92124.234    241.51562    20727    226512.45    31.989208    135.36856    99.152179   -138.55312     434.7803    23.507602    22.162252   0.64745203    435.42775   -3089.2525 
   17500   -101991.25   -92123.474    239.59142    20727     226562.9   -116.12374    83.761372   -38.649121   -393.48347    435.03348    23.503377     22.15827   0.52085785    435.55434   -3084.3613 
   17600   -101909.32   -92123.632    237.59818    20727    226634.59    7.3823279    62.267505    42.132549    -82.25307    435.10168    23.505253    22.160038   0.48676118    435.58844   -3087.2149 
   17700   -102016.86   -92104.269    240.67954    20727    226379.28   -112.90295   -229.10575   -217.39665    107.79354    434.61614    23.505128     22.15992   0.72953173    435.34567   -3109.0985 
   17800   -101930.92   -92062.843    239.59865    20727    226404.75    -1.224827    127.41584   -186.52463    55.434311    434.75958    23.502573    22.157511   0.65781081    435.41739   -3155.8712 
   17900   -102018.68   -92097.427    240.88989    20727    226443.37   -67.583731   -189.64915   -32.887069    19.785025    434.88119     23.50129    22.156302   0.59700646    435.47819    -3118.938 
   18000   -101864.08   -92074.812     237.6851    20727    226452.34    79.611015    119.10818    46.661394    73.063473    434.70743    23.506453    22.161169   0.68388481    435.39132   -3150.3851 
   18100    -101840.4   -92050.239    237.70684    20727    226321.53   -105.14285   -144.71217   -208.35446    37.638089    434.67835    23.500448    22.155508   0.69842529    435.37677   -3168.9475 
   18200   -101999.79   -92043.994    241.72853    20727    226349.91   -88.924261   -115.13536    28.536865   -180.17429    434.61614    23.503603    22.158483    0.7295279    435.34567      -3178.3 
   18300   -101790.17   -92027.879    237.03011    20727    226478.81    60.714987    178.83906   -79.104746     82.41065    434.58855    23.511041    22.165495   0.74332361    435.33188   -3196.8498 
   18400   -101808.83   -92012.005     237.8686    20727    226305.74    111.32527    115.21076    -2.249784    221.01483    434.77091    23.497127    22.152377   0.65214475    435.42306   -3222.5511 
   18500   -101845.99   -92024.321    238.47181    20727    226306.31   -83.394133   -168.49273   -37.967306   -43.722367    434.71786     23.49859    22.153756   0.67866963    435.39653   -3199.8803 
   18600   -101885.57   -92005.354    239.89345    20727    226383.42   -60.804488   -4.9628269   -200.03154    22.580906    434.71325    23.502718    22.157648   0.68097676    435.39422    -3220.806 
   18700    -101912.4   -92013.306    240.35175    20727    226270.84   -5.0489017   -128.12792    73.511746    39.469472    434.62228    23.499332    22.154456   0.72646034    435.34874   -3218.4867 
   18800   -101849.84   -91954.186    240.26817    20727    226362.58   -46.712834    117.89665    26.100103   -284.13525     434.6597    23.503084    22.157993    0.7077475    435.36745   -3274.8297 
   18900   -101856.24    -91971.05    240.01431    20727    226405.88   0.58278527    81.306861      34.7291   -114.28761     434.6794    23.504799     22.15961    0.6979013     435.3773   -3258.8433 
   19000   -101885.42   -91980.071    240.50368    20727    226320.73   -30.605078   -21.796081    -129.1864    59.167251    434.57216    23.503278    22.158176   0.75151902    435.32368   -3252.8389 
   19100   -101752.65   -91975.019    237.40269    20727    226333.89    44.508313    15.430747   -24.068697    142.16289    434.68777    23.500835    22.155873   0.69371704    435.38148   -3262.0433 
   19200    -101820.6   -91972.617    239.11094    20727    226463.21    83.205078    82.631914   -44.114654    211.09797    434.76293    23.505516    22.160286   0.65613482    435.41907   -3265.7467 
   19300   -101811.49   -91960.597    239.18139    20727     226336.5    121.15854    255.81987    43.042251    64.613508    434.52008    23.505505    22.160276   0.77755951    435.29764   -3282.8725 
   19400    -101858.7   -91963.321    240.26159    20727    226231.91   -100.05694   -302.32088    74.410104   -72.260037    434.35461    23.504549    22.159375   0.86029609     435.2149    -3272.475 
   19500   -101876.38    -91966.87    240.60471    20727    226314.41    63.710845    30.964808    73.598358     86.56937    434.42084    23.507042    22.161725   0.82718133    435.24802   -3277.4655 
   19600   -101830.76   -91993.691    238.84578    20727    226340.83   -16.696162    93.786349   -259.80429    115.92945    434.46316     23.50727    22.161939     0.806021    435.26918   -3247.9139 
   19700   -101846.74   -91926.596    240.86298    20727    226318.36    79.279609    210.13702    41.750694   -14.048888    434.44294     23.50665    22.161355   0.81613114    435.25907   -3319.9166 
   19800   -101706.37   -91919.126      237.636    20727    226304.32   -30.434187   -19.110382   -265.66399    193.47181    434.62636     23.50096    22.155991   0.72441874    435.35078   -3323.7859 
   19900   -101802.86   -91947.887    239.28064    20727    226215.83    66.742408   -7.6295047    72.517739    135.33899     434.5686    23.497926    22.153131   0.75329773     435.3219   -3304.2486 
   20000   -101822.56   -91912.109    240.62755    20727     226237.9   -21.206508   -59.763562    -59.34166    55.485697    434.28559    23.506728    22.161429   0.89480608    435.18039   -3334.8517 
   20100   -101791.91   -91911.737    239.89232    20727    226119.19    87.483828      38.6523    97.815234    125.98395    434.10448    23.505462    22.160235   0.98535826    435.08984   -3344.8612 
   20200   -101752.98   -91874.907    239.84143    20727    226264.39    58.944773     260.3833    63.232798   -146.78177    434.49597    23.502412     22.15736   0.78961358    435.28559   -3377.0316 
   20300   -101770.87   -91858.772    240.66765    20727    226144.85   0.23320417    56.756952    52.795445   -108.85278      434.244    23.503019    22.157932   0.91559869     435.1596   -3396.1207 
   20400   -101824.58   -91837.085     242.4982    20727    226229.93   -17.752835     20.38293   -9.3804269   -64.261009    434.48977     23.50079    22.155831   0.79271276    435.28249    -3415.728 
   20500   -101683.79   -91778.599    240.49973    20727    225999.38    45.948909   -87.476039    92.924903    132.39786    434.37381    23.491947    22.147494   0.85069283    435.22451   -3483.6983 
   20600   -101658.34    -91788.42    239.64333    20727    226214.77   -46.480172   -102.84171   -240.63048    204.03168    434.20258    23.507773    22.162414   0.93630951    435.13889   -3465.2329 
   20700   -101661.95   -91744.802    240.79018    20727    226116.74   -23.517743   -50.884294   -80.790288    61.121354    433.93763    23.509853    22.164375    1.0687856    435.00641   -3513.0904 
   20800   -101667.28   -91754.884    240.67472    20727     226047.6    18.877724   -29.922165   -182.06309    268.61843    433.82075    23.509425    22.163971    1.1272226    434.94798   -3510.0839 
   20900   -101692.07   -91715.351    242.23648    20727    226112.82   -1.9888953    149.34231   -113.88542    -41.42358    434.05177    23.506558    22.161268    1.0117149    435.06349   -3546.4512 
   21000   -101575.26   -91685.444    240.12651    20727    225970.61    60.025978    78.565642    5.7684552    95.743836    434.07741    23.498471    22.153644   0.99889453    435.07631   -3585.3219 
   21100   -101662.43   -91689.146    242.15326    20727    226051.31    32.274792    53.971911    91.476104    -48.62364    433.97447    23.505454    22.160227    1.0503673    435.02483   -3578.2595 
   21200   -101619.58   -91671.468     241.5419    20727    225935.56    13.296208    64.287773    134.57769   -158.97684    433.79962     23.50417    22.159017    1.1377903    434.93741   -3601.3667 
   21300   -101520.65   -91682.756    238.86588    20727    226051.27    158.94766    192.57815    317.82525   -33.560429    433.93128    23.506621    22.161328    1.0719618    435.00324   -3591.9614 
   21400   -101614.62   -91671.624    241.41769    20727    226067.42   -8.8254443    19.879983   -124.78113    78.424816     433.8398    23.509939    22.164456    1.1176984     434.9575   -3598.2629 
   21500    -101611.4   -91666.146    241.47255    20727     225898.6  -0.19944798    41.753303   -172.66367    130.31202    433.91137    23.499221    22.154351    1.0819125    434.99329   -3608.9303 
   21600   -101634.32   -91654.637    242.30856    20727    225839.49   -10.196946   -44.755264    1.2271034    12.937323    433.63632    23.503597    22.158477    1.2194422    434.85576    -3622.101 
   21700    -101569.9   -91671.307    240.33964    20727    226040.06    37.133039    84.467559    50.597547   -23.665988    434.08628    23.501842    22.156822   0.99446114    435.08074   -3604.0496 
   21800   -101558.14   -91667.723    240.14109    20727    225900.02    10.031145   -24.323076   -59.711845    114.12836    433.99762     23.49696     22.15222    1.0387875    435.03641   -3610.4461 
   21900   -101626.76   -91656.194    242.08719    20727    226095.76    9.0468249    60.304048   -222.12386    188.96029    434.07145    23.505138     22.15993    1.0018762    435.07332   -3618.9993 
   22000   -101617.68   -91638.461    242.29725    20727     225902.3   -26.772914   -4.9132498   -21.416097   -53.989396    433.86639    23.500632    22.155681    1.1044057    434.97079   -3639.9327 
   22100   -101554.35   -91617.227    241.27521    20727    226164.06   -3.0396179   -192.49835    35.322895     148.0566    434.14686    23.506646    22.161352   0.96416915    435.11103   -3655.5281 
   22200   -101646.09   -91588.339    244.20402    20727    226171.55   -26.419033    154.99236   -148.03707    -86.21239    433.96984     23.51183    22.166238     1.052681    435.02252   -3685.5913 
   22300   -101570.17   -91591.192    242.29141    20727    226214.05   -20.288622    62.304861   -185.11706    61.946332    434.04514    23.511999    22.166398    1.0150287    435.06017    -3683.276 
   22400   -101533.87   -91624.526    240.60074    20727    226045.32    40.319501   -3.9668787   -189.40459    314.32997     434.0464    23.503195    22.158097    1.0143999     435.0608   -3658.0891 
   22500   -101552.38   -91593.614    241.80077    20727    226156.38    64.758897    221.80544   -114.85568    87.326933    434.28158    23.502601    22.157538   0.89680784    435.17839   -3685.5029 
   22600   -101554.74   -91621.922    241.17061    20727    226160.89   -3.1382855   -37.925249   -58.585083    87.095475    434.55529    23.495433     22.15078   0.75995411    435.31525   -3656.6812 
   22700   -101549.51   -91595.407    241.68745    20727    226271.22    42.682673   -41.800381    105.54452     64.30388    434.43044    23.504539    22.159365   0.82237827    435.25282   -3682.3311 
   22800   -101557.64   -91584.785    242.14275    20727    226141.05   -51.526853   -181.78426    141.94415   -114.74045    434.15395    23.505259    22.160044   0.96062434    435.11458   -3692.5236 
   22900   -101537.78   -91571.734    241.97745    20727    226163.93   -16.014006    59.883223   -102.28179    -5.643455     434.3109      23.5022     22.15716   0.88214842    435.19305   -3709.8834 
   23000   -101588.57    -91568.73     243.2835    20727    226144.08   -43.680435   -60.229297   -33.100293   -37.711716    434.21228    23.503837    22.158703   0.93145869    435.14374   -3713.7847 
   23100   -101668.83   -91636.795    243.57975    20727    226135.88   -29.767171   -113.67781   -533.25358    557.62987    434.25666     23.50221     22.15717   0.90926861    435.16593    -3647.794 
   23200   -101576.26    -91585.02     242.5891    20727    225894.29   -30.123653   -189.31316   -6.2052196    105.14742    434.20303    23.491103    22.146698   0.93608423    435.13912   -3706.4472 
   23300    -101546.4   -91611.718    241.21589    20727    226059.07    34.173573   -136.49132    213.56976    25.442279    434.07157    23.503228    22.158129    1.0018157    435.07338   -3679.9495 
   23400   -101591.47   -91605.438    242.46268    20727    226064.43    37.032343    194.62286    345.25643   -428.78227    434.00635    23.505273    22.160056    1.0344248    435.04078   -3685.6308 
   23500   -101659.43   -91605.831    244.10322    20727    226074.73   -20.233542    102.46791    252.52537    -415.6939    434.38935    23.495443     22.15079   0.84292405    435.23228    -3684.681 
   23600   -101529.57   -91559.679    242.07084    20727    226305.57   -48.349697   -95.644765  0.090992409   -49.495317    434.36656    23.508052    22.162677    0.8543208    435.22088     -3724.27 
   23700   -101542.77   -91557.734    242.43838    20727    226084.03    46.051954    128.36082    45.345906   -35.550865    434.13957    23.502685    22.157617   0.96781432    435.10739   -3736.6663 
   23800   -101508.04   -91489.078    243.26214    20727    226147.43    -70.67752   -179.53273   -1.7651697   -30.734664    434.27358    23.502353    22.157304   0.90081213    435.17439   -3800.3455 
   23900   -101508.14   -91491.458    243.20689    20727    226136.79    3.2293156    11.259925    69.604704   -71.176682    434.24291     23.50263    22.157565   0.91614645    435.15905   -3801.4001 
   24000   -101651.05   -91529.089    245.76296    20727    226232.22    3.6092792    86.725997    30.722849   -106.62101    434.43133     23.50249    22.157433   0.82193281    435.25327   -3764.8143 
   24100   -101440.97   -91529.153    240.66083    20727    226278.65    1.7590203    42.346552    -197.7927    160.72321     434.4954    23.503168    22.158073   0.78989819     435.2853   -3762.2506 
   24200   -101502.52   -91519.351    242.39305    20727    226133.47  -0.60114056    12.512033   -55.433068    41.117614    433.99674    23.509122    22.163685    1.0392316    435.03597   -3778.5452 
   24300   -101385.68   -91461.574    240.95912    20727    226179.21    -16.36738   -73.928804    102.99964    -78.17298    434.02327     23.51078    22.165249    1.0259667    435.04923   -3830.8025 
   24400   -101446.01   -91500.201    241.48594    20727    226143.08    107.69512    177.79784        107.3     37.98751     434.1262    23.506116    22.160851   0.97449999     435.1007   -3802.5948 
   24500   -101507.56   -91494.443    243.12041    20727     226172.7    33.022141    -47.95115    73.001604     74.01597    434.13139    23.507515     22.16217   0.97190583    435.10329   -3805.5775 
   24600   -101437.09   -91451.889    242.44244    20727    226308.21   -41.743352    22.487446   -58.582256   -89.135247    434.03943    23.517047    22.171157    1.0178853    435.05731   -3840.6565 
   24700   -101399.27   -91445.964    241.66814    20727    226237.47    47.091557    121.01839    40.773507   -20.517224     434.1146    23.511335    22.165772   0.98029921     435.0949   -3854.5383 
   24800   -101413.59   -91439.909    242.16269    20727    226325.87    115.82204     55.31316    92.190287    199.96268    434.12336    23.515691    22.169878   0.97592048    435.09928   -3862.3035 
   24900   -101388.72   -91444.924    241.43717    20727    226288.39   -1.1254736   -1.5574423    141.44739   -143.26637    434.31358    23.508594    22.163187   0.88081206    435.19439   -3853.7724 
   25000   -101465.33   -91438.998    243.44112    20727    226277.23    15.453215   -123.30007    62.576131    107.08358    434.04332    23.515331    22.169539    1.0159378    435.05926   -3861.8914 
   25100   -101426.96   -91455.371    242.11207    20727    226277.39    92.906151    13.609531    93.038815    172.07011    434.32451    23.507726     22.16237   0.87534509    435.19985   -3849.5854 
   25200   -101408.16   -91448.568    241.82076    20727    226371.41    4.5768119   -34.747561    7.2707931    41.207204    434.44492    23.509351    22.163901   0.81514012    435.26006   -3851.7897 
   25300   -101453.82   -91469.784    242.41418    20727    226192.01   -101.96163   -215.13353   -17.850487   -72.900877    434.47051    23.499342    22.154465    0.8023425    435.27286   -3831.5512 
   25400   -101423.93   -91458.075    241.97281    20727    226369.98     31.37706    69.608099    36.860959   -12.337877     434.4995      23.5078    22.162439   0.78784799    435.28735   -3847.0597 
   25500    -101447.4   -91477.842    242.06259    20727    226382.45   -3.4051961   -28.542124    17.793695   0.53284079    434.53948    23.507366     22.16203   0.76785987    435.30734   -3825.5036 
   25600   -101531.43   -91471.674    244.25262    20727    226413.98    18.583001    58.290579   -226.61662    224.07505    434.26626    23.516397    22.170545   0.90447097    435.17073   -3833.1729 
   25700   -101498.42   -91493.136    242.93011    20727    226285.71    34.295316    151.17997    -117.9767    69.682678    434.25743    23.509974    22.164489   0.90888559    435.16631   -3818.0017 
   25800    -101481.8   -91454.628    243.46168    20727    226375.41    5.5939404   -54.418478     183.5045    -112.3042     434.5491    23.506741     22.16144   0.76305007    435.31215   -3851.6069 
   25900   -101488.61   -91471.375    243.22022    20727    226429.66   -3.4647045   -117.92449   -148.01286    255.54323    434.56283    23.509185    22.163745   0.75618461    435.31902   -3835.0778 
   26000   -101432.15    -91478.67    241.67226    20727    226225.51    36.427889    50.481825   -284.06383    342.86567    434.22845    23.507631     22.16228     0.923374    435.15183   -3836.8615 
   26100   -101435.29   -91435.221    242.80341    20727    226087.72   -17.040722      40.8882   -36.525655   -55.484711    434.40002    23.495829    22.151154   0.83758995    435.23761   -3883.0169 
   26200   -101417.35    -91427.08    242.56566    20727    226293.43    41.986085    14.588505    184.08422   -72.714474    434.59286    23.501301    22.156312    0.7411687    435.33403   -3887.5405 
   26300   -101408.64   -91398.428    243.04977    20727    225920.47   -77.926025   -104.93637    -86.43093   -42.410775    434.18148    23.493048    22.148531   0.94686059    435.12834    -3921.196 
   26400   -101445.79   -91418.968    243.45309    20727    225989.21    1.3588936    16.725229   -186.36742    173.71887    434.34099    23.492306    22.147832   0.86710343     435.2081    -3904.075 
   26500   -101394.97     -91412.5    242.37608    20727    226010.62    88.580019   -15.121725    147.63967    133.22211    434.15589    23.498427    22.153603   0.95965374    435.11555   -3915.0038 
   26600   -101519.46     -91397.7    245.75821    20727    226047.79   -44.613986   -220.95076    15.240944    71.867854     434.1027    23.501799    22.156781   0.98625209    435.08895   -3924.6282 
   26700   -101331.82   -91382.688    241.56682    20727    225843.79    8.7844892   -153.53902    107.10895    72.783539     433.9697    23.494791    22.150175    1.0527516    435.02245   -3949.3633 
   26800   -101343.59   -91339.484    242.90143    20727    225914.53    45.179064    134.29789    219.20722   -217.96792    433.97898    23.498219    22.153407    1.0481108    435.02709   -3994.2161 
   26900   -101390.37   -91344.086    243.92552    20727    225833.43    -61.88789    55.566038   -134.99765   -106.23206    433.69794    23.501612    22.156605    1.1886304    434.88657   -3989.1391 
   27000   -101390.99   -91317.463    244.58702    20727    225664.12    32.500057   -76.679814    78.471483    95.708504      433.721    23.492176    22.147709    1.1770997     434.8981   -4026.4064 
   27100   -101263.11   -91330.841    241.15719    20727    225852.98    80.015127    6.1457943    114.65249     119.2471    433.59452    23.505432    22.160207    1.2403413    434.83486   -4008.3231 
   27200   -101352.26    -91336.71    243.17943    20727    225900.69    100.59531    93.820075    167.06891    40.896943     433.7493     23.50372    22.158592     1.162948    434.91225   -4004.8397 
   27300   -101353.35   -91373.859    242.30379    20727    225728.91    13.510236    163.49935   -322.34874     199.3801    433.99917    23.488017    22.143789    1.0380137    435.03719   -3970.2522 
   27400   -101343.33   -91355.801    242.49904    20727    225946.36    8.7833797    139.41905   -238.28044    125.21152    434.08723    23.496944    22.152205   0.99398679    435.08121   -3982.1257 
   27500   -101297.46   -91389.572    240.56535    20727       225826    53.270041   -108.18867    373.57576   -105.57696    433.82568    23.497765    22.152979    1.1247611    434.95044   -3955.1808 
   27600   -101401.72   -91333.504     244.4581    20727     226002.7    55.368279    6.0325265    22.468781    137.60353    433.81531    23.507237    22.161909     1.129945    434.94526   -4007.6353 
   27700   -101258.07   -91328.463    241.09264    20727     225885.4    28.992849   -80.891464   -52.688546    220.55856    433.93151    23.497989     22.15319    1.0718435    435.00336   -4013.4337 
   27800   -101372.34   -91342.175    243.53426    20727    225927.25    -23.19371   -85.230152    15.814713  -0.16568969    433.67497    23.507116    22.161794    1.2001151    434.87508   -3999.7867 
   27900   -101401.22   -91331.786    244.48763    20727    225903.07   -45.885984    -75.93243   -140.72307    78.997549    433.52902    23.509814    22.164338    1.2730917    434.80211    -4011.554 
   28000   -101320.06   -91291.438    243.49685    20727    226133.24   -45.558201    192.40561   -90.937699   -238.14251    434.03083    23.508187    22.162804    1.0221828    435.05302    -4045.112 
   28100   -101341.25   -91254.206    244.91527    20727    226125.29    52.581552    8.4547026   -106.13117    255.42112    433.83723    23.513018    22.167358    1.1189858    434.95621   -4091.7691 
   28200   -101255.25   -91203.067    244.06887    20727    226181.43    83.517932   -26.205221   -3.5141638    280.27318    433.77737    23.517559     22.17164    1.1489168    434.92628   -4140.6993 
   28300   -101260.86   -91227.499    243.61172    20727    226002.37    15.431722    126.14529    -221.1654    141.31528    433.38973    23.518759    22.172771    1.3427343    434.73247   -4119.0796 
   28400   -101271.53   -91168.976    245.29186    20727    226317.73    17.695435    198.15064    53.441488   -198.50582    433.64198    23.528316    22.181781    1.2166075    434.85859   -4169.9824 
   28500   -101249.78   -91190.423    244.24299    20727    226023.83   -64.925646   -56.539838    105.09809   -243.33519    433.54081    23.515777     22.16996     1.267197      434.808   -4154.8733 
   28600   -101280.75   -91196.338    244.85138    20727    226057.94    42.395974    81.167417     140.5271   -94.506595    433.62206    23.515348    22.169555    1.2265696    434.84863   -4154.8867 
   28700   -101280.39   -91197.991    244.80257    20727    225923.59    -8.113796   -79.667747     160.6684   -105.34204    433.49763    23.511733    22.166147    1.2887854    434.78641   -4154.3586 
   28800    -101196.2   -91215.814    242.32557    20727    226112.54    81.933602   -63.241689   -96.870727    405.91322    433.64668     23.51752    22.171603    1.2142587    434.86094    -4136.448 
   28900   -101195.11    -91208.15    242.48512    20727    225949.64   -32.090555   -90.571317    2.1835987   -7.8839458    433.48904    23.513322    22.167645    1.2930811    434.78212   -4143.7223 
   29000   -101213.29   -91195.762    243.22728    20727    225984.44   -38.259452   -71.012986   -216.45697     172.6916    433.70353    23.509317    22.163869    1.1858355    434.88936   -4154.8001 
   29100   -101301.75   -91184.849    245.64025    20727    226025.56   -61.439577    -21.95051    -238.5789     76.21068    433.62373    23.513619    22.167925    1.2257348    434.84947   -4166.2837 
   29200   -101266.18    -91209.81    244.17039    20727    225954.13    18.026529   -111.19998   -14.410466    179.69003    433.52269    23.512642    22.167004    1.2762563    434.79894   -4146.5705 
   29300   -101281.74   -91210.856    244.52283    20727    226034.87    30.742645    174.69343    3.2484105   -85.713909     433.6445     23.51354    22.167851    1.2153523    434.85985    -4145.761 
   29400   -101293.14   -91229.781    244.34007    20727    225825.08    -15.57539    153.66783   -20.150044   -180.24396    433.72061    23.500563    22.155617     1.177295    434.89791   -4131.3807 
   29500   -101199.85   -91188.615     243.0746    20727    225983.07    110.81576    282.25134    216.20027   -166.00433     433.6896    23.509623    22.164158    1.1928018     434.8824   -4174.7137 
   29600   -101304.85   -91187.943    245.64023    20727    225979.58   -89.486503   -173.53339    25.102299   -120.02842    433.30146    23.519968    22.173911     1.386871    434.68833   -4168.6043 
   29700   -101220.13   -91177.769    243.83025    20727    225842.09   -53.612544    -45.03923   -265.11435    149.31595    433.59545     23.50484    22.159649    1.2398731    434.83533   -4186.4593 
   29800   -101361.65   -91191.475    246.93368    20727    225807.38     47.73363    210.42025   -143.26712    76.047756    433.42325    23.507702    22.162347    1.3259756    434.74922   -4179.0417 
   29900   -101297.76   -91200.145    245.17204    20727    225990.71   -61.652212    20.684962   -62.603652   -143.03795    433.71249      23.5094    22.163948    1.1813541    434.89385   -4161.7112 
   30000   -101303.24   -91178.617    245.82775    20727    225972.86   -47.319358   -48.811803   -207.10994    113.96367    433.58393    23.511956    22.166358    1.2456338    434.82957   -4186.2019 
   30100   -101278.35   -91182.907    245.11918    20727    225883.74   -1.3023449   -55.661273   -30.819878    82.574116    433.48878    23.509899    22.164418    1.2932079    434.78199   -4187.1148 
   30200   -101255.49   -91172.459    244.81777    20727    225865.51   -22.841798    84.560243   -121.14521   -31.940429    433.48219    23.509129    22.163692     1.296505     434.7787   -4199.0238 
   30300   -101231.78   -91162.343     244.4878    20727    225836.35    33.760931    119.75346    234.65171   -253.12238    433.89787    23.496349    22.151643    1.0886663    434.98653   -4212.9051 
   30400   -101125.19   -91157.047    242.02831    20727    225932.41    59.834875    17.368674    204.48056   -42.344605    433.78561    23.504386    22.159221    1.1447946    434.93041   -4218.5612 
   30500   -101232.21   -91184.884    243.95089    20727    225858.55   -105.07056   -238.07328    -97.80022    20.661818    433.90436    23.497328    22.152566    1.0854185    434.98978    -4185.947 
   30600   -101205.84   -91152.076    244.10728    20727    225791.74    34.379728    113.24939   -106.42251    96.312305    433.74931    23.498051    22.153248    1.1629435    434.91226   -4229.3237 
   30700   -101243.29   -91133.354    245.47097    20727    226108.23    -15.39371    158.27565    19.672731   -224.12951    433.99388    23.507887    22.162521    1.0406578    435.03454   -4237.1881 
   30800   -101261.29   -91080.642    247.18803    20727    226142.75      -57.397   -140.64307   -154.76469    123.21676    433.93057    23.511396     22.16583    1.0723126    435.00289    -4288.141 
   30900    -101184.8   -91050.669    246.05858    20727    226075.55   -68.460907    -92.86836   -114.93855    2.4241897    433.98377    23.506462    22.161178    1.0457149    435.02949   -4321.1294 
   31000   -101188.75   -91097.012    245.02922    20727    226117.71   -47.759217   -203.31183     196.1163   -136.08211     433.9684     23.50907    22.163636    1.0534004     435.0218   -4275.5108 
   31100   -101196.36   -91110.437      244.888    20727    226052.79   -48.619691    69.092934   -159.10165   -55.850353     433.9611    23.505893    22.160641    1.0570479    435.01815   -4262.9437 
   31200   -101168.49   -91076.173    245.04319    20727       226212   -14.888435     11.43093    71.341473   -127.43771    434.15379     23.50895    22.163523   0.96070306     435.1145   -4294.8695 
   31300   -101058.05   -91041.822    243.19573    20727    226292.22    93.904383     269.3244    74.653882   -62.265135    434.37158    23.507223    22.161895    0.8518091    435.22339   -4332.0821 
   31400    -101127.1    -91084.06    243.84682    20727    226185.04    69.315689   -34.638827   -33.975451    276.56135    434.24044    23.505204    22.159992   0.91738166    435.15782   -4293.8692 
   31500   -101175.35   -91068.764    245.38972    20727    226125.05   -42.236717   -33.362208     26.82208   -120.17002    434.16175    23.504216    22.159061   0.95672345    435.11848   -4308.5612 
   31600   -101094.48   -91019.216    244.62914    20727    226129.69    38.010551    18.530579    40.379681    55.121394     434.2655    23.501649     22.15664   0.90484855    435.17035   -4362.6007 
   31700   -101171.34   -91018.403    246.51514    20727     226180.3    -111.7878   0.66647561   -151.40134   -184.62854     434.3599    23.501725    22.156712   0.85765012    435.21755   -4356.6494 
   31800   -101120.66   -91000.638     245.7159    20727    226136.99    34.362349    52.540975   -150.00246    200.54853    434.14207    23.505369    22.160148   0.96656533    435.10863   -4383.1212 
   31900   -101153.45   -91048.221    245.35691    20727    225859.11   -30.005812   -74.107106    212.51447   -228.42479    433.94601    23.496229    22.151531    1.0645966     435.0106   -4341.0941 
   32000   -101143.25   -91053.917    244.97073    20727    225931.44      8.26364    46.206494   -33.224488    11.808913    433.90599    23.501075    22.156099    1.0846059    434.99059   -4335.5761 
   32100   -101051.92   -91053.926    242.75307    20727    225850.12    27.731837   -40.985008   -35.687899    159.86842    433.95679     23.49547    22.150815    1.0592033      435.016    -4340.062 
   32200   -101140.15    -91071.18    244.47638    20727    226110.43   -37.977335   -17.015208   -311.86352    214.94672    433.98382    23.508274    22.162886    1.0456915    435.02951   -4313.9059 
   32300   -101232.54   -91064.275    246.88733    20727    225931.16    -43.36143   -4.1683565   -134.80961    8.8936785    433.84655     23.50267    22.157603    1.1143236    434.96088   -4327.7362 
   32400    -101168.7   -91075.206    245.07191    20727    225842.87    43.617891   -189.76618    89.966331    230.65352    433.72746    23.501303    22.156314    1.1738701    434.90133   -4324.8284 
   32500   -101122.17   -91012.181    245.47238    20727    225886.37    -106.8404   -54.147291   -32.435655   -233.93825    433.55363    23.508278     22.16289    1.2607866    434.81441   -4380.2036 
   32600   -101190.92   -91039.258     246.4842    20727    225756.79   -64.218568   -126.87767    203.04433   -268.82236    433.41558    23.505277     22.16006    1.3298109    434.74539   -4360.4991 
   32700    -101130.5   -91094.496    243.67599    20727    225649.76   -11.970936   -21.103533    58.263533   -73.072807    433.34554    23.501603    22.156597    1.3648319    434.71037   -4311.5152 
   32800   -101210.45   -91069.398    246.22663    20727    225830.29   -21.476385   -160.00817   -163.11597    258.69498    433.34185    23.511102    22.165553     1.366676    434.70852   -4332.6398 
   32900   -101241.57   -91066.278    247.05804    20727    225726.88    -83.90021   -192.91724    177.87997   -236.66336    433.26273    23.507865    22.162501    1.4062362    434.66896   -4336.9878 
   33000   -101253.98   -91035.927    248.09617    20727    225721.37   -106.29839    27.230948   -141.76041   -204.36572    433.31558    23.506145    22.160878     1.379811    434.69539    -4368.397 
   33100   -101157.48   -91027.922    245.94745    20727    225750.81    74.201689    148.76832   -40.167838    114.00458    433.40512    23.505249    22.160034    1.3350398    434.74016    -4384.001 
   33200   -101163.29     -91006.6    246.60632    20727    225970.39   -109.49651    64.863585   -258.33749   -135.01562    433.45835    23.515233    22.169447    1.3084239    434.76678   -4391.8774 
   33300   -101206.94   -90977.887    248.36316    20727    225781.25     55.98749    120.46669   -126.27904    173.77482    433.41429    23.506585    22.161294    1.3304534    434.74475   -4436.8101 
   33400   -101119.43   -90950.298     246.9083    20727    226040.32    22.733704   -13.451952    57.778274     23.87479    433.69488    23.512458     22.16683    1.1901607    434.88504   -4453.6522 
   33500   -101172.24   -90965.152    247.83006    20727    225831.58   -5.1654404    42.423008   -20.223548   -37.695781    433.35401     23.51084    22.165305    1.3605958     434.7146   -4445.1107 
   33600   -101075.25   -90959.203    245.61953    20727    225893.93    97.934366   -32.291139     121.0557    205.03854    433.56803    23.508281    22.162892     1.253587    434.82161   -4454.7625 
   33700   -101101.63   -90973.118    245.92203    20727    225983.37    3.9387537    57.462295   -73.146276    27.500243     433.5507    23.513404    22.167723    1.2622491    434.81295   -4434.6204 
   33800   -101105.23   -90973.862     245.9914    20727    225930.43   -12.036141   -45.318603    115.21874   -106.00856    433.53723    23.511015     22.16547    1.2689845    434.80622   -4435.8448 
   33900   -101082.95    -90915.46    246.86858    20727    225601.99   -46.922836   -74.917159   -157.59477     91.74342    433.46301    23.495931     22.15125    1.3060936    434.76911   -4503.4761 
   34000   -101049.83   -90899.799     246.4445    20727     225823.2   -94.499907   -191.19642    36.893878   -129.19718    433.53135    23.505595     22.16036     1.271925    434.80327      -4509.5 
   34100   -101090.11   -90926.952    246.76337    20727    225573.26   -57.458102    166.31871   -111.07362   -227.61939    433.22559    23.500872    22.155907    1.4248054    434.65039   -4493.6753 
   34200   -101016.29   -90888.043    245.91567    20727    225677.65   -63.943087    30.574838   -131.47269   -90.931412    433.36693    23.502475    22.157419    1.3541363    434.72106   -4532.1155 
   34300   -101106.37   -90907.701    247.62557    20727    225755.34    103.05932    4.7539212    336.37368   -31.949635    433.47168     23.50368    22.158555    1.3017609    434.77344   -4520.2635 
   34400   -101121.32   -90891.501    248.38177    20727    225619.26    -80.71524   -186.65399    39.217424    -94.70915    433.14255    23.505521    22.160291    1.4663271    434.60887   -4531.2414 
   34500   -101101.79   -90867.264    248.49612    20727    225558.32    63.650347    113.46711    87.748534   -10.264608    433.07903     23.50407    22.158922    1.4980849    434.57712   -4565.5153 
   34600   -101022.53   -90830.224    247.47107    20727    225569.36   -69.215581   -1.4903558    41.051314    -247.2077    433.01596    23.506356    22.161078    1.5296187    434.54558   -4594.0056 
   34700   -100937.68   -90832.292    245.36073    20727    225624.71    98.410382    6.5584153    73.786509    214.88622    432.99441    23.509826    22.164349    1.5403969     434.5348   -4602.0016 
   34800    -101038.2   -90795.387    248.69733    20727    226012.99   -14.125067   -233.68575   -102.99593    294.30648    433.38888    23.519335    22.173314    1.3431588    434.73204   -4623.8947 
   34900   -101080.87   -90812.937    249.30736    20727    225812.71   -23.535412   -85.924702    71.451181   -56.132715    433.15279    23.515318    22.169527    1.4612061    434.61399   -4612.4445 
   35000      -100957   -90808.004    246.41944    20727    225539.41    67.297617    145.20529    72.348338   -15.660775    433.00559    23.505077    22.159872    1.5348054    434.54039   -4628.7398 
   35100    -101012.2   -90772.394     248.6243    20727    225530.52   -39.272386   -192.78364    94.025564   -19.059081    432.92255    23.506868     22.16156    1.5763248    434.49888   -4662.3159 
   35200   -100969.84   -90818.207    246.48354    20727    225604.48    57.750645    68.216233    123.76893   -18.733222     433.0325    23.507737     22.16238    1.5213511    434.55385   -4619.7987 
   35300    -101060.8   -90777.624     249.6773    20727    225636.32   -27.680506    133.91893    -151.8155   -65.144952    433.02633    23.509564    22.164102    1.5244335    434.55077   -4657.3633 
   35400   -100916.84   -90772.099    246.31605    20727    225642.96    23.119888   -3.9927928    17.086548    56.265909    432.76052    23.517128    22.171234    1.6573421    434.41786   -4663.5268 
   35500   -101080.74   -90756.705     250.6695    20727    225737.09   -112.12503    34.896266   -188.54453   -182.72684    433.12645    23.512095    22.166488    1.4743748    434.60083    -4673.985 
   35600   -100984.12   -90778.548    247.79307    20727    225697.48    17.799959    81.219637   -234.67094    206.85118    432.97285    23.514202    22.168475    1.5511769    434.52402    -4658.055 
   35700   -100978.68   -90761.291    248.07995    20727    225554.31    17.618027   -100.10488     347.1162   -194.15724    432.59733    23.516943    22.171059    1.7389352    434.33626   -4682.3859 
   35800   -100883.84   -90755.709    245.91278    20727    225505.53    95.296044    45.342159   -2.8311501    243.37712     432.8602    23.507258    22.161929    1.6075024     434.4677     -4694.43 
   35900   -100996.95   -90772.196    248.25891    20727    225578.02    20.702754    54.373235   -228.93753    236.67256    433.04794     23.50594    22.160685     1.513632    434.56157   -4673.5691 
[...]
  491300   -93306.981   -80518.611    310.50395    20727    220874.57    123.41528    172.52313    221.79117   -24.068474    421.46564    23.577024    22.227701    7.3047812    428.77042     -22581.4 
  491400   -93301.871   -80565.688    309.23685    20727    220862.11   -109.50071   -65.588725   -87.424411   -175.48898    421.26756    23.581901    22.232299    7.4038213    428.67138    -22524.97 
  491500   -93261.559   -80536.957    308.95566    20727    220709.08   -47.688638     175.0548   -298.49157   -19.629146    421.49621    23.567335    22.218567    7.2894968     428.7857   -22566.074 
  491600    -93294.71   -80502.282    310.60249    20727    220852.31   -4.5833515    45.482898   -41.217839   -18.015114    421.79387    23.566661    22.217932    7.1406644    428.93454   -22599.326 
  491700   -93275.316   -80496.046    310.28302    20727     220883.4    13.396878   -53.862104    29.962871    64.089868    421.55629     23.57496    22.225756    7.2594543    428.81575   -22605.491 
  491800   -93304.389   -80479.743    311.38473    20727    220500.18   -87.772151   -211.67105   -53.229848    1.5844476     421.5176    23.555582    22.207486    7.2788001     428.7964   -22637.538 
  491900   -93229.785   -80493.989    309.22745    20727    220719.04    28.971148    26.206086   -154.59953    215.30689    421.35184    23.571904    22.222874    7.3616797    428.71352   -22618.976 
  492000   -93457.893   -80538.964    313.67395    20727    220532.17   -188.25704  -0.91206817    -211.9876   -351.87147    421.47705    23.558424    22.210166    7.2990772    428.77612    -22577.43 
  492100   -93252.742   -80560.052    308.18083    20727    220644.61   -59.149539   -174.82434   -190.71243    188.08815    421.80396    23.555295    22.207216    7.1356201    428.93958   -22557.196 
  492200   -93331.864   -80540.765     310.5702    20727    220634.69   -37.735287   -55.674311   -29.982482   -27.549068    421.65087    23.559041    22.210748    7.2121647    428.86304   -22581.671 
  492300   -93303.854   -80533.662    310.06258    20727    220575.68    -21.29646    13.579542     -116.914    39.445082    421.93657    23.547914    22.200257    7.0693162    429.00588   -22594.624 
  492400   -93182.083   -80535.849    307.05288    20727    220462.05    160.88642    221.84732   -137.94897    398.76091    421.93126    23.541996    22.194678    7.0719725    429.00323    -22602.92 
  492500   -93291.576   -80515.993    310.19348    20727    220404.83  -0.80359897    29.510124   -143.51103    111.59011    422.28197    23.529164     22.18258    6.8966133    429.17859   -22620.261 
  492600   -93341.234   -80520.662    311.28581    20727    220773.52    107.68959      129.198    139.87478    53.995986    422.56903    23.540836    22.193584    6.7530874    429.32211   -22609.603 
  492700   -93353.472   -80544.397    311.00667    20727    220292.01   -141.72303   -220.72194   -46.801259   -157.64588    421.63274    23.541245     22.19397    7.2212296    428.85397   -22595.528 
  492800   -93326.473   -80527.438    310.76289    20727    220907.73    84.205773    -272.1245   -15.524517    540.26634    421.63688    23.574005    22.224855    7.2191615    428.85604   -22603.881 
  492900   -93230.688   -80546.745    307.96845    20727    220624.55   -6.9408523    0.7142777   -74.015845     52.47901    421.43986    23.564397    22.215797    7.3176724    428.75753   -22591.511 
  493000   -93278.962   -80539.161    309.32469    20727    220799.56   -12.998376    299.62411    54.866645   -393.48588    421.60826    23.569033    22.220168    7.2334688    428.84173   -22595.598 
  493100   -93325.084   -80567.195    309.76387    20727    220697.18    44.103086     36.51507    83.624557    12.169629    421.72352    23.560348    22.211979    7.1758378    428.89936   -22576.828 
  493200   -93367.325    -80555.73    311.06784    20727    220975.55    1.1365769    105.19509    4.8186997   -106.60406    421.84142    23.571907    22.222877    7.1168905    428.95831    -22578.31 
  493300   -93231.199   -80511.275    308.84209    20727    220924.55    126.21336    190.39269    15.606301    172.64109    422.08929    23.562265    22.213787    6.9929565    429.08224   -22629.496 
  493400   -93454.013   -80531.361    313.76436    20727    220994.46    5.7869749   -215.78844    6.0948092    227.05456    422.14115    23.564545    22.215937     6.967026    429.10817    -22605.36 
  493500   -93242.609   -80467.539    310.18103    20727    221159.25     137.8967    137.64958     53.89917    222.14135    422.40941    23.565843     22.21716    6.8328943    429.24231   -22670.346 
  493600   -93380.461   -80518.418    312.29275    20727    220930.08   -55.639285   -176.45993    48.088057   -38.545978    422.30199    23.556626     22.20847    6.8866067    429.18859   -22619.999 
  493700    -93265.06   -80522.969    309.38027    20727    220869.58    29.866055    21.065045     137.8842    -69.35108    422.37275    23.551426    22.203569    6.8512232    429.22398   -22621.194 
  493800   -93372.461   -80531.807    311.77341    20727    221014.85    1.5922115   -65.203061    482.26072   -412.28103    422.29873    23.561235    22.212816    6.8882338    429.18697   -22610.489 
  493900   -93334.393   -80532.168    310.84035    20727    220677.13    104.86282    305.84899     91.88342   -83.143943    422.24155    23.544821    22.197341    6.9168228    429.15838   -22627.736 
  494000   -93280.622   -80524.916    309.71086    20727    220968.68   -37.795184   -33.203601   -90.447955    10.266004    422.57376    23.551106    22.203267    6.7507196    429.32448   -22619.331 
  494100   -93320.752   -80534.004    310.46455    20727     221078.6   -69.608905    -95.02488   -79.087331   -34.714503    422.30582    23.564435    22.215833    6.8846907    429.19051   -22607.281 
  494200   -93329.414   -80563.249    309.96482    20727    220827.98    82.543645   -7.9480894    364.77169   -109.19267    422.13372    23.555875    22.207763    6.9707385    429.10446    -22596.49 
  494300   -93386.075   -80522.321    312.33429    20727    221284.65   -85.226678   -138.14032   -407.96957    290.42986    421.93115    23.585879     22.23605    7.0720236    429.00318   -22614.022 
  494400   -93360.959   -80523.028     311.7073    20727    221374.86   -45.590573   -168.08913    133.17764   -101.86022    421.96589    23.589715    22.239666    7.0546535    429.02055   -22614.734 
  494500   -93376.806   -80507.724    312.46366    20727    221307.42    -35.17875    71.166452    91.245031   -267.94773    422.16249    23.580629      22.2311     6.956355    429.11884   -22634.544 
  494600   -93239.509   -80523.194    308.75444    20727    221202.82   -47.359339   -224.60469    132.80886   -50.282197    421.86473    23.583374    22.233688    7.1052328    428.96997   -22624.481 
  494700    -93328.79   -80533.274    310.67747    20727    221012.06    26.916452    122.67346    -374.4748     332.5507    421.58109    23.581131    22.231574    7.2470557    428.82814   -22624.354 
  494800   -93272.649   -80539.861     309.1544    20727    221144.72    10.555008    187.47355    43.570957   -199.37948     422.2077    23.570697    22.221737    6.9337514    429.14145   -22614.389 
  494900   -93267.576   -80532.785    309.20305    20727    221011.16    22.314434    8.6691859    -63.05471    121.32883    422.46379    23.556435    22.208291    6.8057039     429.2695   -22628.633 
  495000   -93324.202   -80479.017    311.88343    20727     221328.4   -60.047091   -34.245699   -38.922419   -106.97315    422.32534      23.5772    22.227867    6.8749283    429.20027   -22668.203 
  495100   -93263.888   -80502.615    309.84605    20727     221251.1    5.1858543   -16.532691    97.500142   -65.409888     422.6595    23.563761    22.215198    6.7078497    429.36735   -22651.711 
  495200   -93349.488   -80499.272    312.00557    20727    221344.04    25.824976    58.252126   -139.82419    159.04699    422.76617    23.565737     22.21706    6.6545132    429.42069   -22654.992 
  495300   -93303.599   -80490.263    311.11013    20727    221328.13   -10.811366   -165.64704   -85.898631    219.11157    422.95399    23.559657    22.211328    6.5606057    429.51459   -22665.053 
  495400   -93226.436   -80493.909    309.14808    20727    221173.28    -3.643172   -9.7167776   -55.498645    54.285907    422.79951    23.555716    22.207613     6.637846    429.43735   -22668.134 
  495500   -93198.849    -80466.39    309.14641    20727    221209.63    42.945839    40.496769    180.27101   -91.930267    422.50558    23.565845    22.217162    6.7848102    429.29039    -22697.09 
  495600   -93325.808   -80481.538    311.86121    20727    221198.35    7.4542301   -88.487639    86.803932    24.046397     422.4778    23.566018    22.217325    6.7987012     429.2765    -22684.29 
  495700   -93172.511   -80464.322    308.55715    20727    221005.65   -54.214165   -171.91615    -244.4645    253.73815    422.60304     23.55226    22.204355    6.7360798    429.33912   -22707.954 
  495800   -93131.567   -80470.162     307.4212    20727    220973.79    125.91651    198.96868    267.67094    -88.89008    422.13492    23.563617    22.215062     6.970139    429.10506   -22714.014 
  495900   -93285.443   -80516.569    310.03057    20727    220853.17   -137.21621    18.750167   -216.07953   -214.31927    422.27094    23.553391    22.205421    6.9021281    429.17307   -22664.702 
  496000    -93412.63   -80488.656    313.79643    20727    221082.39    27.269487    179.88344     208.3266   -306.40158    422.66928    23.554503     22.20647    6.7029623    429.37224    -22693.39 
  496100   -93318.371   -80542.368    310.20369    20727    221094.11    43.870066   -100.07501    35.428818    196.25639    422.79465    23.551635    22.203765    6.6402742    429.43493   -22641.957 
  496200   -93160.007   -80476.049     307.9688    20727    221221.41    6.1018382   -129.93406    234.71958   -86.480008    422.95287    23.554007    22.206002    6.5611632    429.51404   -22700.626 
  496300   -93331.524   -80475.429    312.14833    20727    221319.36    34.917601     157.6923    185.47848   -238.41798    423.07797    23.555738    22.207633    6.4986175    429.57658   -22701.109 
  496400   -93303.705   -80491.517    311.08226    20727    221380.74    57.812977    9.6511183    294.12466   -130.33685    422.96903    23.562038    22.213573    6.5530829    429.52212   -22684.629 
  496500   -93310.381   -80505.862    310.89604    20727    221433.02   -57.732187   -24.372877   -147.63049   -1.1931968    423.04366    23.562741    22.214236    6.5157718    429.55943   -22667.088 
  496600   -93381.485    -80486.48    313.09308    20727    221495.53    132.99472    95.605501   -64.418801    367.79745    423.28157    23.559443    22.211126    6.3968126    429.67839    -22694.68 
  496700   -93410.984     -80498.6    313.51502    20727    221405.83   -10.280747   -76.510232   -48.084798    93.752791    422.78892    23.568391    22.219563    6.6431381    429.43206   -22684.447 
  496800   -93285.749   -80489.946    310.68445    20727    220830.64    64.945478    45.754487    125.01399    24.067952       422.44    23.547476    22.199844    6.8175984     429.2576   -22716.799 
  496900   -93399.252   -80506.214    313.04531    20727       221392    56.700468   -109.87804    108.65186    171.32759    422.78564    23.567747    22.218955    6.6447817    429.43042   -22682.287 
  497000   -93259.087   -80456.276    310.85459    20727    221379.79    43.162306   -4.4873571   -144.45068    278.42496    422.33452     23.57968    22.230205    6.8703378    429.20486   -22730.621 
  497100   -93235.354   -80448.383    310.46998    20727    221417.64   -7.3389656   -47.656399    106.82207   -81.182571    422.04738    23.589716    22.239667    7.0139125    429.06129    -22738.86 
  497200   -93258.876   -80440.266    311.23819    20727    221271.34   -109.60207    -251.2237    35.795794    -113.3783    422.06606      23.5814    22.231827    7.0045721    429.07063   -22750.255 
  497300   -93153.654   -80458.303    308.24544    20727    221057.91     150.8285    176.16094    109.07308    167.25148    421.79532    23.577588    22.228233      7.13994    428.93526   -22753.237 
  497400   -93164.026   -80451.774     308.6558    20727    221256.91   -21.309941   -217.92893   -33.935848    187.93496    421.71279    23.590506    22.240412    7.1812064    428.89399   -22747.029 
  497500    -93313.55   -80436.793    312.65002    20727    221193.37    26.406901   -25.179677    97.390068    7.0103116    421.90567    23.581726    22.232134    7.0847633    428.99044   -22768.938 
  497600   -93164.821   -80394.851     310.0572    20727    221491.11    32.104313    233.23387    1.2507948   -138.17172    422.09552    23.592284    22.242088    6.9898378    429.08536   -22803.331 
  497700   -93205.112   -80416.537    310.50892    20727    221419.58   -24.821493    13.005964   -164.03038    76.559934    422.31705    23.582287    22.232663    6.8790739    429.19613   -22783.071 
  497800   -93185.342   -80426.407    309.78928    20727     221397.1   -28.716754   -17.893574   -217.41296    149.15627    422.30022    23.581559    22.231977     6.887491    429.18771   -22774.632 
  497900   -93229.788   -80466.887    309.88557    20727     220996.9    35.397612    308.23573   -81.096638   -120.94626    422.24277    23.561839    22.213386    6.9162126    429.15899   -22754.941 
  498000    -93165.21   -80474.972    308.12129    20727    221155.15   -2.0378752   -53.605982    55.129802   -7.6374458    422.24076     23.57033    22.221391    6.9172202    429.15798   -22737.182 
  498100   -93298.692   -80485.584    311.10458    20727    220756.53    25.438589    80.043742    -126.8613    123.13333    422.05164    23.554354    22.206329    7.0117794    429.06342   -22748.817 
  498200    -93320.98   -80454.234    312.40692    20727    220928.21    82.214965    77.745106    92.083813    76.815977    422.01598    23.564507    22.215901    7.0296105    429.04559   -22779.488 
  498300   -93156.529   -80412.887    309.41793    20727    220971.69     -145.037    18.236555    -59.29597   -394.05159    422.05408    23.565762    22.217084    7.0105606    429.06464   -22805.757 
  498400   -93151.179   -80423.502    309.03033    20727    220367.01    101.59701    234.32013    -18.66311    89.134002    421.20952    23.557078    22.208897    7.4328377    428.64236   -22831.307 
  498500   -93297.042   -80465.706    311.54719    20727    220564.25     25.49851    131.94362    79.357433   -134.80553    421.23149    23.567003    22.218254    7.4218556    428.65334   -22783.387 
  498600   -93295.324   -80458.512    311.68012    20727    220901.59   -126.12804   -137.24673    -362.7592    121.62183    421.52574    23.576785    22.227476    7.2747323    428.80047   -22772.189 
  498700   -93157.904   -80506.768    307.17188    20727    220529.72    146.41002    124.39225    396.66123   -81.823434    421.27134    23.564044    22.215464    7.4019285    428.67327   -22750.029 
  498800   -93233.373   -80496.689    309.24902    20727    220537.06    3.2427211    66.549424   -136.14531    79.324052     421.6339    23.554302     22.20628    7.2206517    428.85455   -22757.708 
  498900   -93334.061   -80517.302    311.19323    20727    220478.89   -2.1956575   -47.780538    76.176752   -34.983186    421.93163    23.542885    22.195516    7.0717828    429.00342   -22740.958 
  499000   -93401.764   -80536.985    312.35917    20727    220790.49   -38.471029   -153.57459    112.50362   -74.342117    422.15835    23.553188     22.20523    6.9584236    429.11678   -22714.278 
  499100   -93258.821   -80500.892    309.76484    20727    221140.74   -65.733298   -256.41326   -62.546786    121.76016    421.86224    23.580134    22.230633    7.1064792    428.96872   -22736.373 
  499200   -93331.152   -80536.551    310.65524    20727    220558.55    180.96949    141.97707    237.30076    163.63066    421.22769    23.566805    22.218068     7.423757    428.65144   -22740.251 
  499300   -93413.148   -80507.704    313.34653    20727    220581.58   -156.52518   -277.05465   -243.25023    50.729323    420.98464    23.574838     22.22564    7.5452816    428.52992    -22753.09 
  499400   -93443.396   -80586.086    312.17782    20727    220455.46    30.034023   -138.26647   -11.298926    239.66746    420.32958    23.586455    22.236592     7.872811    428.20239   -22689.571 
  499500   -93338.586   -80523.628    311.14953    20727    220356.87    23.904356   -58.120875    304.19022   -174.35628    420.07919    23.588207    22.238244    7.9980061    428.07719   -22755.639 
  499600   -93387.099   -80543.569    311.84327    20727    220766.27    63.399811    123.86513    80.948991   -14.614683    420.66477     23.59367    22.243395    7.7052174    428.36998   -22725.525 
  499700   -93323.395   -80568.475    309.69178    20727    220785.74   -65.546037   -158.52833   -103.98194    65.872158    420.57005    23.597367     22.24688    7.7525732    428.32263   -22695.981 
  499800   -93311.467   -80560.607    309.59321    20727    220792.53    230.63788    12.592394     285.1004    394.22086    420.48366    23.600154    22.249508    7.7957696    428.27943   -22716.183 
  499900   -93331.908   -80545.923    310.44604    20727    220613.97   -55.076968   -156.44573    26.466338   -35.251516    420.15054     23.59996    22.249325    7.9623307    428.11287   -22726.881 
  500000   -93281.184   -80537.206    309.42611    20727    220285.57   -8.7414777   -137.84411    173.16814   -61.548463    419.93015    23.588575    22.238592    8.0725225    428.00268   -22752.995 
Loop time of 70974 on 32 procs for 500000 steps with 20727 atoms

Performance: 1.217 ns/day, 19.715 hours/ns, 7.045 timesteps/s
97.4% CPU use with 32 MPI tasks x no OpenMP threads

MPI task timing breakdown:
Section |  min time  |  avg time  |  max time  |%varavg| %total
---------------------------------------------------------------
Pair    | 13458      | 14581      | 16431      | 775.0 | 20.54
Bond    | 0.78405    | 0.87209    | 1.2862     |  10.0 |  0.00
Kspace  | 13135      | 14988      | 16110      | 765.4 | 21.12
Neigh   | 10578      | 12681      | 14687      |1529.4 | 17.87
Comm    | 545.27     | 1820.8     | 4129.4     |2371.5 |  2.57
Output  | 9.6336     | 31.826     | 43.354     | 206.5 |  0.04
Modify  | 25353      | 26788      | 29548      | 884.3 | 37.74
Other   |            | 82.58      |            |       |  0.12

Nlocal:    647.719 ave 708 max 586 min
Histogram: 1 3 3 7 4 1 2 6 1 4
Nghost:    7373.69 ave 7923 max 6819 min
Histogram: 2 3 6 6 2 1 1 1 6 4
Neighs:    239203 ave 275020 max 210346 min
Histogram: 3 8 7 0 1 1 0 3 5 4
FullNghs:  478405 ave 552958 max 414133 min
Histogram: 2 7 9 0 1 0 1 3 6 3

Total # of neighbors = 15308957
Ave neighs/atom = 738.6
Ave special neighs/atom = 2
Neighbor list builds = 500000
Dangerous builds not checked
write_data production.R1
PPPM initialization ...
  extracting TIP4P info from pair style
WARNING: Using 12-bit tables for long-range coulomb (../kspace.cpp:316)
  G vector (1/distance) = 0.346017
  grid = 400 48 48
  stencil order = 5
  estimated absolute RMS force accuracy = 0.000399428
  estimated relative force accuracy = 1.20287e-06
  using double precision FFTs
  3d grid and FFT values/proc = 64980 38400
write_restart restartproduction.R1
PPPM initialization ...
  extracting TIP4P info from pair style
WARNING: Using 12-bit tables for long-range coulomb (../kspace.cpp:316)
  G vector (1/distance) = 0.346017
  grid = 400 48 48
  stencil order = 5
  estimated absolute RMS force accuracy = 0.000399428
  estimated relative force accuracy = 1.20287e-06
  using double precision FFTs
  3d grid and FFT values/proc = 64980 38400
Total wall time: 19:42:54
