LAMMPS (30 Jul 2016)
# Sets up LAMMPS simulation for transient melting of ice: TIP4P/Ice
# Ensure cold thermostats do not move
# Thinbox: 16x1x1
# Defects
# Order param l=2

#### setting MD parameters ####
units real
boundary p p p
atom_style full

# read ice box in restart file
### read the equilibrated NPT restart file

read_restart restart.state
  orthogonal box = (0.415102 0.0223994 0.0211175) to (435.66 23.5088 22.1634)
  32 by 1 by 1 MPI processor grid
  20736 atoms
  13824 bonds
  6912 angles
  2 = max # of 1-2 neighbors
  1 = max # of 1-3 neighbors
  1 = max # of 1-4 neighbors
  2 = max # of special neighbors


#### force field definition ####
pair_style      lj/cut/tip4p/long 2 1 1 1 0.1577 10.0
pair_modify	tail yes

kspace_style	pppm/tip4p 1.0e-6

bond_style	harmonic
angle_style	harmonic
dihedral_style	none
improper_style	none

bond_coeff	1 450.0 0.9572
angle_coeff	1 55.0 104.52


# reset pair coeff
pair_coeff	* * 0.0 0.0

#OO
pair_coeff	2 2 0.21085 3.1668
#OH
pair_coeff	* 1 0.0000 0.0000

neighbor        2.0 bin
neigh_modify    every 1 delay 1 check no

timestep	2.0
fix		constraints all shake 0.000001 20 0 b 1 a 1
  0 = # of size 2 clusters
  0 = # of size 3 clusters
  0 = # of size 4 clusters
  6912 = # of frozen angles

group water type 1 2
20736 atoms in group water

#*********** SIMULATION PARAMETER TO ADJUST ****************
#Box dimensions
variable lx equal lx
variable ly equal ly
variable lz equal lz

### Temperature of the hot and cold regions ####
variable thi equal 375
variable tlo equal 215
variable runpressure equal 0.986923


# Configuration equilibrated in density and temperature

# Define dx here

variable lx equal lx
variable ly equal ly
variable lz equal lz

variable xlo equal xlo
variable xhi equal xhi

variable boxcentre equal ${xlo}+(${xhi}-${xlo})/2
variable boxcentre equal 0.415101805018537+(${xhi}-${xlo})/2
variable boxcentre equal 0.415101805018537+(435.660098194987-${xlo})/2
variable boxcentre equal 0.415101805018537+(435.660098194987-0.415101805018537)/2

variable dx equal 2.0

#### ADD IN DEFECTS AT THE CENTRE OF THE HOT THERMOSTAT #####
variable y1 equal ${ly}/2.0
variable y1 equal 23.4864011047884/2.0
variable z1 equal ${lz}/2.0
variable z1 equal 22.1422649635032/2.0

region kill1 sphere ${boxcentre} ${y1} ${z1} 3
region kill1 sphere 218.037600000003 ${y1} ${z1} 3
region kill1 sphere 218.037600000003 11.7432005523942 ${z1} 3
region kill1 sphere 218.037600000003 11.7432005523942 11.0711324817516 3
delete_atoms region kill1 compress no bond yes mol yes
Deleted 15 atoms, new total = 20721
Deleted 10 bonds, new total = 13814
Deleted 5 angles, new total = 6907
############


variable thip equal ${thi}*2.0/3.0
variable thip equal 375*2.0/3.0
variable tlop equal ${tlo}*2.0/3.0
variable tlop equal 215*2.0/3.0
variable hbl equal ${boxcentre}-${dx}
variable hbl equal 218.037600000003-${dx}
variable hbl equal 218.037600000003-2
variable hbh equal ${boxcentre}+${dx}
variable hbh equal 218.037600000003+${dx}
variable hbh equal 218.037600000003+2

#***************************************************
## EQUILIBRATION PERIOD - to reach the steady state ###
#run 0

#reset the timestep to start your production run
reset_timestep 0

# define a group to perform averages
#group s1 type 1
###*** SYSTEM THERMOSTATTING: HOT and COLD regions ***###

fix NVE all nve
fix PRESS all press/berendsen aniso ${runpressure} ${runpressure} 500000 couple yz
fix PRESS all press/berendsen aniso 0.986923 ${runpressure} 500000 couple yz
fix PRESS all press/berendsen aniso 0.986923 0.986923 500000 couple yz


### Apply THERMOSTATS ###

#set up the "hot region" in the middle of the box
region hot block ${hbl} ${hbh} 0 ${ly} 0 ${lz} units box
region hot block 216.037600000003 ${hbh} 0 ${ly} 0 ${lz} units box
region hot block 216.037600000003 220.037600000003 0 ${ly} 0 ${lz} units box
region hot block 216.037600000003 220.037600000003 0 23.4864011047884 0 ${lz} units box
region hot block 216.037600000003 220.037600000003 0 23.4864011047884 0 22.1422649635032 units box


#set up the "cold region" at the left end of the box
#region cold block ${cbl} ${cbh} 0 ${ly} 0 ${lz} units box

#set up the "cold region" at the right end of the box
#region cold2 block ${h2bl} ${xhi} 0 ${ly} 0 ${lz} units box


#Cold regions  unification
#region cold union 2 cold1 cold2 units box

#Create group of cold molecules
####group cool_ice region cold
####group cool_ice include molecule

####compute cold_temp cool_ice temp
####fix cold_rescale water temp/rescale 1 ${tlo} ${tlo} 0.0001 1.0
####fix_modify cold_rescale temp cold_temp

#this calculates the temperature using only the atoms in the "hot region"
#compute hot_temp all temp/region hot

# calculate the temperature using only WATER in the "hot region"
compute hot_temp water temp/region hot

#this calculates the temperature using only WATER in the "cold region"
#compute cold_temp water temp/region cold


#set up a basic velocity rescale for the hot region WATER with thip
fix hot_rescale water temp/rescale 1 ${thip} ${thip} 1.0 1.0
fix hot_rescale water temp/rescale 1 250 ${thip} 1.0 1.0
fix hot_rescale water temp/rescale 1 250 250 1.0 1.0
#change the thermostat to only act on the "hot region"
#this is done by passing it the "hot temp" compute that we defined above
fix_modify hot_rescale temp hot_temp

#set up a basic velocity rescale for the cold region
#fix cold_rescale water temp/rescale 1 ${tlop} ${tlop} 1.0 1.0
#change the thermostat to only act on the "cold region"
#this is done by passing it the "cold temp" compute that we defined above
#fix_modify cold_rescale temp cold_temp

### Ensure MOMENTUM CONSERVATION ###

#ensure that linear momentum is conserved despite the "thermostatting" by velocity rescaling
fix cons_mom all momentum 1 linear 1 1 1


thermo 100
thermo_style custom step pe etotal temp atoms vol press pxx pyy pzz lx ly lz xlo xhi  f_hot_rescale

group ox type 2
6907 atoms in group ox
group hy type 1
13814 atoms in group hy
compute KE all ke/atom
variable TEMP atom c_KE*4186.8/(1.3806488*6.02214129)

compute cc1 all chunk/atom bin/1d x center 2 units box
#fix TPROFILE all ave/chunk 1 500 500 cc1 v_TEMP density/number file temp.dat
fix TPROFILEox ox ave/chunk 1 500 500 cc1 v_TEMP density/number file temp-ox.dat
fix TPROFILEhy hy ave/chunk 1 500 500 cc1 v_TEMP density/number file temp-hy.dat

compute orderparam ox orientorder/atom degrees 1 2 nnn 4 cutoff 3.5
compute cc2 ox chunk/atom bin/1d x center 2 units box
#fix ORDERPARAM all ave/chunk 1 500 500 cc2 c_orderparam[1] file order-param.dat
fix ORDERPARAM all ave/chunk 1 500 500 cc2 c_orderparam[1] file order-param.dat

restart 50000 config.restart

run 500000
PPPM initialization ...
  extracting TIP4P info from pair style
WARNING: Using 12-bit tables for long-range coulomb (../kspace.cpp:316)
  G vector (1/distance) = 0.345596
  grid = 405 48 48
  stencil order = 5
  estimated absolute RMS force accuracy = 0.00040603
  estimated relative force accuracy = 1.22275e-06
  using double precision FFTs
  3d grid and FFT values/proc = 67260 38880
Neighbor list info ...
  2 neighbor list requests
  update every 1 steps, delay 1 steps, check no
  max neighbors/atom: 2000, page size: 100000
  master list distance cutoff = 12.3154
  ghost atom cutoff = 12.3154
  binsize = 6.1577 -> bins = 71 4 4
Memory usage per processor = 12.7791 Mbytes
Step PotEng TotEng Temp Atoms Volume Press Pxx Pyy Pzz Lx Ly Lz Xlo Xhi hot_resc 
       0    -103828.1   -94981.772    214.85259    20721    226345.73    61.992024    47.981599   -244.53539    382.52986      435.245    23.486401    22.142265   0.41510181     435.6601            0 
     100   -103673.57   -94723.705    217.36739    20721    226448.81    54.830269   -13.105958     119.6965    57.900262    435.29282    23.490458     22.14609   0.39119206    435.68401   -265.20813 
     200   -103509.63   -94641.064     215.3928    20721     226442.7   -13.967321   -265.82129     283.8753   -59.955976    435.32066     23.48939    22.145083   0.37726976    435.69793   -342.08152 
     300   -103502.64   -94596.577    216.30356    20721    226558.56    61.634494    278.77921    150.23532   -244.11105    435.43135    23.492412    22.147932   0.32192426    435.75328   -390.42583 
     400   -103542.96   -94518.803    219.17158    20721    226498.62    -26.00337    -172.9503     186.3588   -91.418608    435.22809    23.494788    22.150172   0.42355326    435.65165   -465.73582 
     500   -103582.29   -94513.338    220.25958    20721    226440.04    10.914871    36.637249   -83.176207    79.283571    435.26729    23.490692     22.14631   0.40395357    435.67125   -477.77038 
     600   -103536.28   -94454.729    220.56552    20721    226390.38   -54.925098   -149.64379   -86.799492    71.667992    435.22253    23.489324     22.14502   0.42633387    435.64887   -533.09068 
     700   -103468.04   -94437.341    219.33064    20721    226484.67    35.588005   -3.0201562   -80.485409    190.26958    435.37319     23.49015    22.145799   0.35100571    435.72419   -553.61647 
     800   -103542.87   -94458.231    220.64047    20721    226432.33   -3.2988596    22.617277   -168.45565    135.94179    435.26497    23.490355    22.145992   0.40511568    435.67008    -534.8422 
     900   -103478.65   -94387.417    220.80084    20721    226530.28   -49.611435   -144.90865    61.094672   -65.020325    435.37534    23.492457    22.147974   0.34992918    435.72527   -600.05176 
    1000   -103440.32   -94315.187    221.62398    20721    226476.45   -35.383006   -6.5658613    165.66619   -265.24935    435.34591    23.490459    22.146091   0.36464589    435.71055   -675.18475 
    1100   -103425.43   -94327.561    220.96184    20721    226405.87   -57.522708   -169.15183    186.38153   -189.79782    435.15859    23.491853    22.147405   0.45830689    435.61689   -663.22155 
    1200   -103533.48   -94335.756    223.38711    20721    226443.26   -60.160358   -203.47273   -186.41997    209.41163    435.12812    23.494615    22.150009    0.4735392    435.60166   -656.02612 
    1300   -103442.52   -94271.894    222.72903    20721    226376.85   -9.4502407    58.911361   -143.68562    56.423533    435.31484    23.486131    22.142011   0.38017793    435.69502   -723.82823 
    1400   -103434.33   -94258.024    222.86702    20721    226433.55    12.688661    83.969915   -2.5676209   -43.336313    435.19036    23.492432     22.14795   0.44242122    435.63278   -738.41686 
    1500   -103382.75   -94272.425    221.26432    20721    226415.56   -27.849504    57.106959    169.94377   -310.59924    435.23668    23.490248    22.145892   0.41925776    435.65594   -722.13056 
    1600    -103382.3   -94209.056    222.79255    20721    226400.74    46.875677   -78.663179    43.340378    175.94983    435.05976    23.494255     22.14967   0.50771898    435.56748   -791.14446 
    1700   -103391.94   -94242.484    222.21479    20721    226462.79    66.871844    44.532897    -184.4841    340.56673    435.31062    23.490703     22.14632   0.38228958    435.69291   -756.84905 
    1800   -103322.63   -94194.293    221.70196    20721    226636.09   -9.3748747   -3.1397739    -165.8989    140.91405    435.26253    23.500987    22.156016   0.40633568    435.66886   -797.74217 
    1900   -103311.89   -94178.392     221.8271    20721    226453.34   -41.151191   -48.803092   -170.18772    95.537235    435.22877    23.492422    22.147941   0.42321307    435.65199   -818.03084 
    2000   -103255.92   -94151.577    221.11917    20721    226419.16    2.7962035   -151.42379    108.97408    50.838315    435.19288    23.491617    22.147182   0.44116032    435.63404   -847.11072 
    2100   -103257.11   -94141.689     221.3881    20721    226492.69    73.128973    163.77882    306.65156   -251.04346    435.16246    23.496253    22.151553   0.45636983    435.61883   -862.22335 
    2200   -103225.54   -94113.822    221.29822    20721    226489.89   -7.0831081    98.899565    125.15674   -245.30563    435.31591    23.491966    22.147511   0.37964471    435.69556   -886.50919 
    2300   -103293.63   -94098.803    223.31668    20721    226540.62   -17.187878     265.5645   -178.18994   -138.93819    435.38204    23.492812    22.148309   0.34658005    435.72862   -901.34663 
    2400   -103204.42   -94075.752    221.70989    20721    226591.78    60.570278     17.82805    39.623275    124.25951    435.45875    23.493395    22.148859   0.30822741    435.76697   -926.92426 
    2500   -103291.39   -94055.254    224.31989    20721    226535.35   -22.419651    -57.31896    107.38809   -117.32808    435.40498     23.49192    22.147468   0.33511054    435.74009   -946.80604 
    2600   -103150.38   -94000.744    222.21921    20721     226572.7    29.402961    72.246854    134.70017   -118.73814    435.42736    23.493253    22.148724   0.32391911    435.75128   -1003.4745 
    2700   -103298.38   -94018.504    225.38226    20721    226485.09    8.0131648    58.630167   -45.535723     10.94505    435.28056     23.49267    22.148176   0.39731926    435.67788   -987.49869 
    2800   -103275.15   -94020.698    224.76477    20721    226517.38     49.15268    96.251383    100.32018   -49.113525    435.26882    23.494662    22.150053   0.40318836    435.67201    -990.6506 
    2900   -103175.34     -93992.6    223.02313    20721    226512.19    62.610947    106.50334    132.52993   -51.200435    435.34653    23.492296    22.147822   0.36433313    435.71087   -1017.0816 
    3000   -103299.03   -93987.351    226.15482    20721    226676.92   -20.839057    139.06005   -249.52296    47.945732    435.44138    23.498277    22.153461   0.31691166    435.75829   -1017.7522 
    3100   -103211.11   -93986.904    224.03034    20721    226337.08    18.596003   -116.44948    134.63238    37.605107    435.25141    23.485779    22.141679   0.41189343    435.66331   -1028.3963 
    3200   -103245.76   -93969.885    225.28525    20721    226561.71   -38.585755    122.12808   -147.05408   -90.831267    435.41073    23.493131     22.14861   0.33223323    435.74297   -1037.8424 
    3300   -103222.95   -93929.221    225.71875    20721    226486.59   -40.576883   -213.92661     66.92657    25.269394    435.19833    23.494968    22.150341   0.43843555    435.63676   -1083.1177 
    3400   -103224.28   -93954.149    225.14566    20721    226640.64    26.598427    61.789284   -125.92141    143.92741    435.26917    23.501044     22.15607   0.40301648    435.67218   -1057.7544 
    3500   -103146.03   -93927.675    223.88815    20721    226428.04     45.87738    35.604179    242.86548   -140.83752    435.49059    23.484047    22.140045   0.29230436     435.7829    -1089.256 
    3600   -103128.66    -93905.33    224.00902    20721    226760.84   -28.620024   -60.730179   -83.260367    58.130474    435.58332    23.498797    22.153951   0.24594028    435.82926   -1100.8075 
    3700   -103168.89   -93874.308    225.73962    20721    226515.19    23.362923    169.79176   -310.90004    211.19706    435.37235    23.491755    22.147312   0.35142366    435.72378   -1142.4758 
    3800   -103080.73   -93840.823    224.41151    20721    226591.32     37.73321    84.067097    68.173509   -39.040974    435.44854    23.493647    22.149096   0.31333224    435.76187   -1176.4864 
    3900    -103093.4   -93835.632    224.84536    20721    226763.47     65.57613    48.872453   -39.463208    187.31915    435.44729    23.502603     22.15754   0.31395699    435.76124   -1177.2509 
    4000   -103034.22   -93777.934    224.80934    20721    226619.53    26.715025    158.59996    23.558451   -102.01333    435.58426    23.491448    22.147023   0.24547045    435.82973   -1237.7769 
    4100   -103053.35   -93757.879    225.76115    20721    226781.85   -16.669262   -109.76211    174.49999   -114.74566    435.48175    23.502626    22.157561   0.29672723    435.77847   -1253.0211 
    4200   -103106.69   -93712.263    228.16439    20721    226642.21   -39.462078   -22.144583    114.54698   -210.78863    435.29449    23.500442    22.155502   0.39035439    435.68485   -1302.7977 
    4300   -103117.96   -93758.739    227.30941    20721    226452.76   -34.114158   -33.415425   -5.1644464   -63.762604    435.08944    23.496153    22.151458   0.49288169    435.58232   -1261.7804 
    4400   -103024.09   -93733.613    225.63977    20721    226382.11    57.187918   -21.491489    92.575872    100.47937    435.09873    23.492236    22.147766   0.48823341    435.58697   -1293.1449 
    4500   -103028.77   -93703.312    226.48949    20721    226546.04    11.639526   -70.659523    63.032334    42.545767    435.23152    23.497155    22.152404   0.42183845    435.65336    -1318.969 
    4600   -103095.63   -93661.396    229.13117    20721    226677.25    26.716802   -101.38765   -78.441634    259.97969    435.22024    23.504263    22.159105   0.42747902    435.64772   -1359.9196 
    4700   -103023.54   -93663.404    227.33161    20721    226587.94    62.908711    186.66994   -6.0783857    8.1345732    435.15072    23.501509    22.156509   0.46224034    435.61296   -1360.9021 
    4800   -102982.89   -93646.626    226.75184    20721    226622.54    58.409636    9.0474521   -13.547308    179.72876    435.51824    23.493385    22.148849   0.27848205    435.79672   -1379.0436 
    4900   -103028.05   -93615.494    228.60478    20721    226648.63    5.6371999   -27.708517    199.29669   -154.67657    435.27403    23.501327    22.156337   0.40058297    435.67462   -1408.4534 
    5000   -103051.13   -93599.774    229.54719    20721    226633.92   -44.427304   -56.591868   -73.309515   -3.3805277    435.24239    23.501419    22.156423   0.41640563    435.65879   -1422.9292 
    5100    -102950.7   -93557.292     228.1398    20721    226666.24   0.48074316   -61.912336   -93.822684    157.17725    435.28198    23.502025    22.156995   0.39660822    435.67859   -1466.1045 
    5200   -102874.85   -93558.046    226.27928    20721     226463.2     27.47689    171.36019   -64.064075   -24.865446    435.23876    23.492663    22.148169   0.41821982    435.65698     -1471.28 
    5300   -102876.65   -93529.356     227.0197    20721     226698.5    31.039235     139.1937    161.27646   -207.35246    435.46848    23.498664    22.153826   0.30335816    435.77184   -1495.4261 
    5400   -102938.94   -93522.953    228.68813    20721    226691.54    19.063598    136.25047    6.8395868   -85.899259    435.18227    23.506029     22.16077    0.4464644    435.62874   -1501.7542 
    5500   -102894.74   -93495.733    228.27575    20721    226526.93    45.063407    111.46278     56.32217   -32.594731    435.03499    23.501471    22.156472   0.52010683    435.55509   -1537.0418 
    5600   -102892.69   -93495.537     228.2306    20721    226671.32   -16.454499    78.104612    -117.0506   -10.417514    435.40024    23.499096    22.154234    0.3374791    435.73772   -1532.7992 
    5700   -102986.23   -93487.335    230.70159    20721     226765.6   -94.253578   -132.15387   -129.10259   -21.504276    435.31204    23.506364    22.161086   0.38157902    435.69362   -1535.3036 
    5800   -102899.25   -93520.363    227.78706    20721    226474.47     39.54477   -33.806121    153.44551   -1.0050815    435.12426    23.496339    22.151634   0.47547014    435.59973   -1517.6075 
    5900   -102987.09   -93491.151    230.62978    20721    226660.15    34.936301    38.552665    413.52905   -347.27281    435.09559    23.506743    22.161443   0.48980646    435.58539   -1543.6115 
    6000   -102863.43   -93502.464    227.35173    20721    226521.14    56.032085   -130.56636    215.73034    82.932269    435.01468    23.501719    22.156706   0.53026055    435.54494   -1536.3558 
    6100   -102953.91   -93455.533    230.68908    20721    226504.47    -14.89901    198.15397   -212.83845   -30.012546    435.01306    23.500898    22.155932   0.53106947    435.54413   -1581.4961 
    6200    -102845.8   -93423.984    228.82966    20721    226770.47    12.218107    133.49593    -202.1521     105.3105    435.37675     23.50487    22.159677   0.34922586    435.72597   -1607.0748 
    6300   -102796.98   -93397.775    228.28055    20721     226474.6   -2.8802044    16.544399   -85.542563    60.357551    435.21276    23.493956    22.149388   0.43122042    435.64398   -1641.3191 
    6400   -102784.63   -93338.084    229.43031    20721    226619.86    37.669892    -13.34341   -27.109086    153.46217    435.20697    23.501646    22.156637   0.43411648    435.64108   -1700.1827 
    6500   -102726.74   -93333.534    228.13473    20721    226392.57    24.697404   -11.640577   -11.383928    97.116716    434.98143    23.495946    22.151264   0.54688462    435.52832   -1709.9725 
    6600   -102855.46   -93385.555    229.99769    20721    226516.48   -53.740762   -182.64711    12.351958    9.0728662    435.11615    23.498736    22.153894   0.47952446    435.59568   -1652.8424 
    6700   -102785.46   -93322.599    229.82648    20721     226637.6   -4.2236211   -157.16747   -2.7802715    147.27688    435.28025    23.500587    22.155639   0.39747491    435.67773   -1715.6469 
    6800   -102727.99   -93305.554    228.84483    20721    226485.46   -7.5199872    71.730953   -12.171395    -82.11952    435.14033    23.496475    22.151762   0.46743517    435.60776   -1739.4073 
    6900    -102746.4   -93275.484    230.02223    20721    226585.52   -14.427096   -196.08186     66.22636    86.574211    435.16057    23.501118     22.15614   0.45731531    435.61788   -1764.7643 
    7000   -102633.81   -93229.633    228.40132    20721     226686.3    30.921082    132.62288   -137.45489    97.595253    435.32817    23.501819      22.1568   0.37351326    435.70169    -1810.417 
    7100   -102732.72   -93230.113    230.79174    20721    226735.24   -15.039083    79.363049    66.757344   -191.23764    435.37257    23.503156    22.158061   0.35131259    435.72389   -1807.8961 
    7200   -102751.93   -93216.948    231.57826    20721    226719.84    40.251513   -6.4773706    66.002962    61.228948    435.30548    23.504169    22.159016   0.38485949    435.69034   -1825.2276 
    7300   -102755.87   -93192.403    232.26989    20721    226759.86   -30.458708    33.431467   0.42417398   -125.23177    435.34204    23.505257    22.160042   0.36658101    435.70862   -1846.4054 
    7400   -102656.39   -93167.635    230.45541    20721    226638.62    29.636036    109.62693    152.10718   -172.82601    435.43583    23.496442    22.151731   0.31968469    435.75552   -1877.2551 
    7500   -102721.38   -93172.265    231.92149    20721    226726.35    23.420146    41.142509   -12.963441     42.08137    435.30566    23.504502     22.15933   0.38476753    435.69043   -1871.6902 
    7600   -102754.22   -93151.464     233.2241    20721    226706.14   -30.534118   -71.469439    24.489081   -44.621997    435.23715    23.505304    22.160086   0.41902325    435.65618   -1892.6187 
    7700   -102740.56   -93149.412    232.94233    20721    226714.82   -31.476739   -40.644368    132.32323   -186.10908    435.27578    23.504711    22.159527   0.39970876    435.67549   -1895.6982 
    7800   -102680.62   -93106.154    232.53718    20721    226831.87   -3.6712036    1.9044443    30.001023   -42.919078    435.30977     23.50986    22.164381   0.38271479    435.69249    -1934.935 
    7900   -102691.42   -93089.758    233.19762    20721    226759.26   -33.409078   -52.150841   -134.62773    86.551343     435.4136    23.503294    22.158191   0.33080005     435.7444   -1954.9296 
    8000   -102704.46   -93105.496    233.13214    20721    226840.38    20.751603    78.842135   -140.60028    124.01295    435.47418    23.505862    22.160612   0.30050754    435.77469   -1940.2912 
    8100   -102602.76   -93108.674    230.58495    20721    226650.91   -2.4509902   -146.57757    255.23922   -116.01462    435.11511    23.505737    22.160494   0.48004519    435.59515   -1940.9151 
    8200   -102641.85   -93075.244    232.34628    20721     226804.3    48.689009    76.291082      60.1597    9.6162445    435.26663    23.509596    22.164133   0.40428488    435.67092   -1973.6841 
    8300    -102609.9   -93080.222    231.44935    20721    226659.67    5.0198298    11.154318   -65.551848     69.45702    435.26917     23.50203       22.157   0.40301368    435.67219    -1971.226 
    8400   -102582.83   -93069.576    231.05048    20721    226774.88   -75.794612   -63.912535    76.814401    -240.2857    435.16528    23.510809    22.165276   0.45496057    435.62024   -1974.2666 
    8500   -102644.73   -93020.715    233.74049    20721     226744.8    -38.54999    43.346873   -29.843294   -129.15355     435.4557    23.501409    22.156414   0.30975095    435.76545   -2028.7962 
    8600   -102547.32   -93012.138    231.58306    20721    226693.31   -34.005276   -185.64411    144.99637   -61.368091    435.01981     23.51051    22.164994   0.52769404    435.54751   -2039.3082 
    8700   -102621.37   -92993.141    233.84279    20721    226714.12    39.585141     57.70976   -77.473306    138.51897    435.25593    23.505211    22.159998   0.40963368    435.66557   -2064.2581 
    8800   -102526.91   -92974.842    231.99307    20721    226615.55   -46.914586    13.360702   -158.41038    4.3059208    435.12298    23.503691    22.158565   0.47610873    435.59909   -2080.5378 
    8900   -102682.55   -92975.724    235.75185    20721    226788.48   -32.827945   -92.012675   -45.132009    38.660851    435.26395    23.508849    22.163428   0.40562583    435.66957   -2077.6289 
    9000   -102487.64    -92976.18    231.00683    20721    226655.58    87.269656   -28.764913    81.724003    208.84988    435.35596    23.499476    22.154592   0.35961984    435.71558   -2086.6141 
    9100   -102587.59   -92926.948    234.63017    20721    226563.76   -50.869211   -74.452632    70.697165   -148.85217    434.94446    23.505827    22.160579   0.56537178    435.50983   -2133.5494 
    9200   -102479.16   -92920.341    232.15712    20721    226682.56    47.356948   -103.38724    241.24925    4.2088358    435.15889    23.506195    22.160926   0.45815421    435.61705   -2140.1317 
    9300   -102582.83   -92945.782    234.05701    20721    226555.68    39.497198    72.116089   -9.0476282    55.423134    435.05081    23.502535    22.157475   0.51219552      435.563   -2120.5946 
    9400   -102471.94   -92887.936    232.76877    20721    226585.43   -5.7961296   -17.138498   -136.01907    135.76918    434.94415    23.506959    22.161646   0.56552303    435.50968   -2176.6847 
    9500   -102508.73   -92843.812     234.7339    20721    226749.59    15.446597    32.002705     78.44609   -64.109004    434.98675    23.514322    22.168588   0.54422581    435.53097   -2217.4446 
    9600   -102486.04   -92854.861    233.91451    20721     226510.4    -76.67993   -17.663395    118.68394   -331.06033    434.93985    23.503183    22.158087   0.56767643    435.50752   -2210.1464 
    9700   -102545.85    -92826.31    236.06047    20721    226539.36   -10.740431    31.643314    201.83663   -265.70124    434.89155    23.505991    22.160734   0.59182324    435.48338   -2241.1079 
    9800   -102401.58   -92788.143    233.48365    20721    226570.87    10.223982    87.457752   -106.75467    49.968867    434.97921    23.505257    22.160041   0.54799304    435.52721   -2281.4044 
    9900   -102420.28   -92793.978    233.79609    20721    226712.09    60.046138    89.672791   -197.80265    288.26827    435.08655     23.50968    22.164212   0.49432635    435.58087   -2273.9307 
   10000   -102411.83   -92796.191    233.53714    20721    226693.54    52.602292     39.52562    66.548112    51.733146    435.16184    23.506685    22.161388   0.45668084    435.61852   -2273.9594 
   10100   -102435.42   -92777.217    234.57083    20721    226658.79    38.226367    8.9465491    34.944192    70.788359    435.01532    23.508841     22.16342   0.52993817    435.54526   -2293.8849 
   10200   -102318.45   -92758.506     232.1845    20721     226690.9    58.526098    72.781464    191.39243   -88.595599    435.08057    23.508743    22.163328   0.49731343    435.57789   -2312.5139 
   10300   -102388.48   -92717.247    234.88721    20721    226734.73    83.786012   -95.490335    403.43537   -56.587002    435.00472    23.513066    22.167403   0.53523921    435.53996   -2353.5735 
   10400   -102399.93   -92743.654    234.52415    20721    226594.08   -21.466107   -115.01997     44.77791    5.8437451      434.992    23.506115    22.160851   0.54160184     435.5336   -2328.8525 
   10500   -102343.24   -92702.795    234.13966    20721    226574.22   -21.640463   -9.1810022   -220.27585    164.53546    435.06908    23.503003    22.157917   0.50306207    435.57214   -2370.6316 
   10600   -102320.98   -92692.431    233.85058    20721    226571.52    29.109626   -82.025575   -68.526692    237.88115     435.1607    23.500388    22.155452   0.45724804    435.61795   -2385.2854 
   10700   -102368.71   -92703.471     234.7418    20721    226712.29    1.1954979   0.53458774    88.400835    -85.34893    435.15371    23.507877    22.162511   0.46074643    435.61445   -2369.1659 
   10800   -102357.84   -92685.787    234.90728    20721     226393.4    10.135801    60.903252  -0.15074686   -30.345103    435.07827    23.493375    22.148839   0.49846692    435.57673   -2395.9791 
   10900   -102344.25   -92668.498    234.99706    20721     226520.5   -4.7924849    31.660557   -159.99958    113.96157    435.23972    23.495609    22.150946   0.41774123    435.65746   -2412.3123 
   11000   -102363.58   -92684.439    235.07928    20721    226528.33   -3.1549746   -66.150812    13.215035    43.470853    435.06352    23.500773    22.155814   0.50584184    435.56936   -2396.1185 
   11100   -102335.24   -92673.881     234.6474    20721    226404.54     7.198758   -87.313499    165.97709   -57.067314    434.89509      23.4989    22.154048   0.59005695    435.48514   -2411.8592 
   11200   -102379.54   -92688.173    235.37625    20721    226317.34    17.949052     58.32327    266.15142   -270.62754    434.80612    23.496778    22.152048   0.63454184    435.44066   -2401.0797 
   11300   -102298.63   -92663.724    234.00514    20721    226373.59    5.7456146     242.1567   -126.35047   -98.569391    434.58438    23.505692    22.160452   0.74540905    435.32979   -2424.5811 
   11400   -102358.89   -92643.591    235.95757    20721    226353.35    29.708055    100.37587   -36.538388    25.286685    434.56994    23.505032    22.159829   0.75263222    435.32257   -2447.9329 
   11500   -102331.39   -92669.266    234.66599    20721    226184.44   -35.649037   -257.24202   -134.81107    285.10597     434.5373    23.497142    22.152392    0.7689492    435.30625   -2425.2133 
   11600   -102385.57   -92629.043    236.95887    20721    226380.23    -66.87568   -76.760545   -68.670805   -55.195689    434.68754    23.503247    22.158147   0.69382891    435.38137    -2461.239 
   11700   -102308.18   -92644.555    234.70251    20721    226404.44    15.637881    169.03664    37.130149   -159.25315    434.67474     23.50485    22.159658    0.7002291    435.37497   -2449.6368 
   11800   -102241.58   -92607.287    233.99003    20721    226368.44    84.128969    116.84443    101.62503    33.917444    434.63525    23.504049    22.158903   0.71997494    435.35523    -2489.446 
   11900   -102321.99   -92625.214    235.50778    20721    226324.67   -60.746241    2.0474247   -140.04184   -44.244312    434.24423    23.512355    22.166734   0.91548467    435.15972   -2470.1424 
   12000   -102395.85   -92595.895    238.01368    20721    226171.72   -73.060818   -64.350995    50.233453   -205.06491    434.32842    23.502131    22.157095   0.87339211    435.20181   -2505.2389 
   12100   -102276.42    -92594.16     235.1552    20721    226276.91    31.762299   -2.3810166   -85.750614    183.41853    434.39578    23.505773    22.160528   0.83971159    435.23549   -2508.1737 
   12200   -102273.13   -92591.909    235.12985    20721    226350.05    17.415624   -120.89413    198.82164   -25.680638     434.6029    23.503969    22.158827    0.7361523    435.33905    -2509.319 
   12300   -102221.65   -92580.274    234.16209    20721    226304.04   -21.852545    -41.88038    -104.0822    80.404946    434.41049    23.506784    22.161482   0.83235558    435.24284   -2520.5856 
   12400   -102256.46   -92581.691    234.97312    20721     226367.7    95.977037    303.21726    58.637863   -73.924007    434.26203    23.514108    22.168386   0.90658628    435.16861   -2524.8851 
   12500   -102209.79    -92543.76    234.76084    20721    226189.64     50.59033    39.446393    187.27399   -74.949392    434.34896    23.502506    22.157448   0.86311853    435.21208   -2565.7354 
   12600   -102102.73   -92507.095    233.05113    20721    226411.28    146.70499    207.57714    26.946306    205.59151    434.66745    23.505402    22.160179    0.7038774    435.37132   -2602.4105 
   12700   -102232.11   -92478.291    236.89305    20721    226359.78    8.7672399    14.483044   -10.150282    21.968958    434.58115    23.505062    22.159858   0.74702335    435.32818   -2626.6603 
   12800   -102122.59   -92470.645    234.41889    20721     226405.5   -13.296712   -201.77179   -57.032915    218.91457    434.78377    23.501958    22.156931   0.64571337    435.42949   -2632.0226 
   12900   -102184.15   -92494.167    235.34263    20721    226163.86    22.211268    24.665793   -141.60901    183.57702    434.27709    23.503111    22.158019   0.89905679    435.17614   -2619.3942 
   13000   -102165.29   -92468.933    235.49741    20721    226650.63    122.76724    131.11965    391.64263   -154.46056    434.84816    23.512936    22.167281   0.61351858    435.46168    -2636.502 
   13100   -102165.16   -92446.929    236.02867    20721    226401.62    6.1522147   -39.065911   -96.682462    154.20502    434.83543     23.50036    22.155425   0.61988726    435.45531   -2660.9615 
   13200   -102134.77   -92429.075     235.7244    20721    226700.86   -43.582808   -40.687688    84.257752   -174.31849    434.80901      23.5166    22.170736   0.63309268    435.44211   -2670.6767 
   13300   -102152.42   -92483.873    234.82209    20721    226594.89    59.639492   -122.19057    2.3430332    298.76601    434.82556    23.510655    22.165131   0.62482181    435.45038   -2626.1311 
   13400   -102205.43   -92471.508    236.40973    20721    226483.24   -24.969879   -71.786935   -273.46038    270.33768    434.69452    23.508405     22.16301    0.6903383    435.38486    -2639.003 
   13500   -102121.83   -92431.564    235.34964    20721    226474.84    41.574443   -112.53299   -86.616482     323.8728    434.76411    23.506088    22.160825   0.65554534    435.41965   -2682.6329 
   13600   -102179.74   -92432.942    236.72244    20721    226290.39    -96.85295   -107.55183   -186.16912    3.1620979    434.49851    23.503694    22.158568   0.78834604    435.28685   -2678.7725 
   13700   -102139.84   -92415.512    236.17676    20721    226192.99   -37.456854   -145.79583    74.444141   -41.018878     434.1878    23.507042    22.161724   0.94369866     435.1315   -2702.1696 
   13800   -102196.33   -92423.991    237.34278    20721    226306.34   -44.452006    71.505831   -16.704727   -188.15712    434.57105     23.50256      22.1575   0.75207593    435.32312   -2692.9115 
   13900   -102149.95   -92372.007    237.47897    20721    226373.81    5.4548474    41.221249   -34.773299    9.9165926    434.65815    23.503709    22.158582   0.70852542    435.36667   -2747.6677 
   14000   -102157.86   -92367.215    237.78755    20721    226291.46   -29.597395    112.00412    -273.3745    72.578192    434.52248    23.503101    22.158009   0.77635799    435.29884   -2753.1519 
   14100   -102145.29   -92375.387    237.28373    20721    226469.87   -47.136569    130.31091   -188.53193   -83.188684     434.8458    23.503622      22.1585   0.61470083     435.4605   -2740.6589 
   14200   -102069.79   -92396.381    234.94007    20721    226370.92    70.843985   -49.001456    148.39552     113.1379     434.4796    23.508387    22.162993   0.79779936     435.2774   -2729.0007 
   14300   -102105.36   -92408.561    235.50813    20721    226207.05   -7.1014782     94.96661     138.9734   -255.24445     434.5191    23.498809    22.153963   0.77804768    435.29715   -2718.5372 
   14400   -102110.18   -92352.319    236.99121    20721    226341.75    -27.17195     -95.5211   -60.695336    74.700586    434.53883     23.50527    22.160054   0.76818421    435.30702   -2771.1396 
   14500   -102119.33   -92367.466    236.84573    20721    226435.73    26.775799    36.489917   -72.403245    116.24073     434.5065    23.511025    22.165479   0.78435048    435.29085     -2757.59 
   14600   -102154.33   -92363.603    237.78936    20721    226419.76    44.697798    85.594971    163.70861   -115.21019    434.59917    23.507689    22.162334   0.73801684    435.33718   -2763.8219 
   14700   -102103.35    -92335.22    237.24071    20721    226211.46   -22.572876    -46.26576   -108.13696    86.684093    434.51169    23.499238    22.154368   0.78175684    435.29344   -2794.1706 
   14800   -102030.77    -92337.37    235.42558    20721    226355.74   -28.318929    -6.365903    13.940558   -92.531442    434.58544    23.504736    22.159551   0.74488019    435.33032   -2788.7659 
   14900   -102013.48   -92321.348    235.39495    20721    226354.14    79.080425    137.75599    -137.5789    237.06419    434.54559    23.505731    22.160489   0.76480426     435.3104   -2812.4346 
   15000   -102151.58   -92381.331     237.2922    20721    226163.49     -27.6136   -51.028128    85.385974   -117.19864    434.27654    23.503107    22.158015   0.89933106    435.17587   -2752.5894 
   15100   -102132.02   -92287.576    239.09414    20721    226356.57   -72.483727   -61.264988      90.6169   -246.80309    434.41078    23.509504    22.164046   0.83220934    435.24299   -2840.6747 
   15200   -102085.14   -92335.215    236.79845    20721    226118.71   -16.435558   -97.024034    52.932684   -5.2153227    434.14323    23.504388    22.159222   0.96598399    435.10922   -2803.6952 
   15300   -102090.72   -92290.806    238.01256    20721    226398.18    37.236278    78.560733   0.79378279    32.354319    434.39461    23.512103    22.166495    0.8402964     435.2349   -2841.3727 
   15400   -102099.44    -92251.58      239.177    20721    226412.87   -20.638939   -150.76602    221.46265   -132.61345    434.62258    23.506698      22.1614   0.72630865    435.34889   -2879.6698 
   15500   -102092.74   -92284.723    238.20942    20721    226309.26    -14.35366   -110.95642    2.8475252    65.047913    434.58956    23.502212    22.157171   0.74281974    435.33238   -2850.8722 
   15600   -101985.66   -92278.656    235.75608    20721    226319.43    116.40662    118.16927     205.7455    25.305076    434.47742    23.505773    22.160528   0.79889248    435.27631   -2862.6433 
   15700    -102010.5   -92290.419    236.07373    20721     226242.5    34.672236    111.92399    105.99242    -113.8997    434.33794     23.50555    22.160318   0.86862913    435.20657   -2852.0193 
   15800   -101997.43    -92281.92    235.96275    20721    226543.63   -15.119127   -110.85059     94.74684   -29.253632    434.67547    23.512054     22.16645    0.6998669    435.37533   -2850.3875 
   15900   -102097.29   -92237.603    239.46438    20721    226393.53   -31.716098   -100.70432   -201.19312    206.74915    434.52125    23.508435    22.163037   0.77697614    435.29822   -2899.3114 
   16000   -102041.62   -92220.338    238.53155    20721     226450.1   -23.362348    139.44727    -226.1039    16.569579    434.66185    23.507569    22.162221   0.70667724    435.36852   -2915.4195 
   16100   -102049.87   -92219.864    238.74356    20721    226533.85    25.341681     34.62046    208.00815   -166.60357    434.60751    23.513385    22.167705    0.7338447    435.34136   -2917.6875 
   16200   -102055.67   -92208.586    239.15822    20721    226452.29   -43.437393   -1.7478381    19.837587   -148.40193    434.72304    23.506028    22.160768   0.67608195    435.39912   -2928.8926 
   16300   -102096.23   -92188.611    240.62847    20721    226407.12   -33.240676    27.890832   -11.667666   -115.94519      434.672    23.505063    22.159859   0.70159972     435.3736   -2951.6407 
   16400   -101975.66   -92189.785    237.67152    20721    226366.91   -25.409714   -80.664564    -177.9507    182.38612    434.67597    23.502869     22.15779   0.69961302    435.37559    -2953.565 
   16500   -102130.07   -92221.517    240.65108    20721       226428   -57.872637   -262.60641   -11.648084    100.63659    434.74696    23.504121     22.15897   0.66411898    435.41108   -2919.9675 
   16600   -102003.08   -92195.892    238.18938    20721    226219.01    41.232935    151.41795    -87.32544      59.6063    434.60031    23.497234    22.152478   0.73744682    435.33775   -2955.4923 
   16700   -102007.23   -92196.905    238.26553    20721    226128.21    18.723322   -100.80667    190.98218   -34.005541    434.42043    23.497382    22.152617   0.82738694    435.24781   -2956.5384 
   16800   -101950.61   -92192.693    236.99253    20721     226128.3   -14.105787   -189.50516   -114.33549    261.52329    434.27474    23.501327    22.156337   0.90023039    435.17497   -2959.9083 
   16900   -101897.17   -92149.923     236.7335    20721    226022.36    12.159967     264.9661   -323.83768    95.351475    434.17886    23.498415    22.153592    0.9481675    435.12703   -3008.5668 
   17000    -101969.7   -92154.534    238.38295    20721    226068.19   -5.1140539    -12.60827   -68.559517    65.825625    434.35273    23.496094    22.151403   0.86123467    435.21397   -3003.7133 
   17100   -102011.03   -92192.402    238.46708    20721    225904.83   -74.186308   -118.61858    23.319047   -127.25939    434.07727    23.495054    22.150423   0.99896474    435.07624   -2969.2332 
   17200   -102020.95   -92166.999     239.3251    20721    226001.93   0.30654581    -105.9426    364.75177   -257.88954    434.01398    23.501816    22.156798    1.0306075    435.04459   -2997.2868 
   17300   -101856.43   -92157.117     235.5692    20721    226130.65    45.332116    26.571372    5.7151546    103.70982    433.99175     23.50911    22.163674    1.0417226    435.03348   -3003.9887 
   17400    -101954.1   -92124.921    238.72336    20721    226104.72   -69.135924    88.362892   -241.88064    -53.89003    434.03064    23.506709    22.161411    1.0222802    435.05292    -3033.032 
   17500   -101891.85   -92103.684    237.72739    20721    225992.83     18.67316    108.91492   -127.81813    74.922696    433.74582    23.508607      22.1632    1.1646896    434.91051   -3062.7093 
   17600    -101927.4   -92127.684    238.00781    20721       225924   -20.201342   -57.851702   -139.47019    136.71787     433.6384    23.507938    22.162569    1.2184022     434.8568   -3038.6884 
   17700   -101818.75   -92094.666    236.17092    20721    225886.88    50.134563   -28.175946    223.97795    -45.39831    433.45885    23.510875    22.165338    1.3081775    434.76702    -3078.097 
   17800   -101930.32   -92096.217    238.84288    20721    225984.65    18.922339    -35.74511    138.59942   -46.087292    433.72061    23.508864    22.163443    1.1772945    434.89791   -3073.7686 
   17900   -101953.76   -92052.307    240.47864    20721    225939.12   -57.739108   -40.553822   -253.70234    121.03884    433.84672     23.50308    22.157989    1.1142384    434.96096   -3115.6878 
   18000   -101849.76   -92030.748    238.47651    20721    225839.33    26.539674   -68.379864    153.51779   -5.5189053    433.44198    23.508857    22.163436    1.3166078    434.75859   -3146.8331 
   18100   -101839.49   -91982.541    239.39787    20721    225960.23   -51.822134   -56.245506    32.121374   -131.34227     433.6542    23.509394    22.163942    1.2104993     434.8647   -3188.7177 
   18200   -101802.63   -91965.669    238.91242    20721    226027.57    67.695482   -110.55164    78.141162    235.49693    433.34268    23.521347    22.175211      1.36626    434.70894    -3208.382 
   18300   -101910.01   -91982.242    241.11775    20721    226037.08    -2.326312    43.107522   0.71266977   -50.799128    433.59395    23.515026    22.169251    1.2406253    434.83457   -3191.6207 
   18400   -101865.11   -91947.117    240.88036    20721    226089.86   -46.443706    54.101653   -119.36834   -74.064429     433.9403    23.508383    22.162989    1.0674481    435.00775   -3223.5683 
   18500   -101931.48   -91960.013    242.17908    20721    226128.71   -100.87251   -164.53143   -127.62142   -10.464675     433.9114    23.511186    22.165632    1.0819012     434.9933   -3208.4457 
   18600   -101860.93   -91970.153    240.21938    20721    226213.78   -52.263609   -8.4787821   -105.22042   -43.091626    433.87305    23.516647     22.17078    1.1010733    434.97413   -3198.7677 
   18700   -101851.26   -91963.527    240.14547    20721    226223.41   -27.548312   -26.074798   -125.91645    69.346312    434.01965    23.513176    22.167507    1.0277732    435.04743   -3206.2539 
   18800   -101793.72   -91960.977       238.81    20721    226097.09   -21.466487    73.921494   -145.05484    6.7338852    434.29006    23.499291    22.154417    0.8925677    435.18263   -3214.0116 
   18900   -101723.66   -91937.453    237.67961    20721    225968.05    5.4639442   -4.6102025    52.528262   -31.526227    433.78771    23.506183    22.160915    1.1437459    434.93145   -3241.1947 
   19000   -101860.65   -91877.743    242.45698    20721    226267.61   -25.985547    30.564712    181.03499   -289.55634    434.02516    23.515323    22.169532     1.025019    435.05018   -3294.9362 
   19100   -101686.56   -91877.778    238.22793    20721    226038.95    11.027029     79.60233    160.53379   -207.05503    433.84031    23.508445    22.163048    1.1174474    434.95775   -3302.9607 
   19200   -101824.14   -91866.144    241.85205    20721    226240.92    5.2381969    63.516538   -123.39298    75.591031    434.11929    23.511387    22.165821   0.97795425    435.09725   -3308.9348 
   19300   -101696.59   -91858.181    238.94747    20721    226115.46     84.53181   -35.013969    162.96778    125.64162     434.2244    23.502022    22.156992   0.92540189     435.1498   -3326.9825 
   19400   -101688.27   -91848.688    238.97601    20721    226131.52    34.566585      8.05282     -8.32041    103.96735    433.99476    23.509074    22.163641    1.0402209    435.03498   -3334.2997 
   19500   -101807.45   -91825.428     242.4356    20721    226051.61   -48.460349    52.778158   -58.566161   -139.59304    433.82482    23.509523    22.164064    1.1251896    434.95001    -3357.689 
   19600   -101686.92    -91816.65    239.72136    20721    226301.19    21.300497    8.1149953   -72.283236    128.06973     434.1156    23.514619    22.168868   0.97979974     435.0954    -3364.016 
   19700   -101772.69   -91832.168    241.42765    20721    226094.27    -120.2138   -100.10419   -371.07695    110.53975    434.00803    23.506778    22.161476    1.0335855    435.04161   -3348.7014 
   19800   -101727.17   -91826.599     240.4574    20721    226113.54     77.16567    101.38519    88.883317    41.228507    434.18453    23.503002    22.157915   0.94533583    435.12986   -3364.1774 
   19900   -101724.71   -91807.881     240.8522    20721    226098.65   -3.4043925    69.358518    155.47343   -235.04512     434.1031    23.504431    22.159263   0.98604866    435.08915   -3378.1839 
   20000   -101674.53   -91802.085    239.77422    20721    226177.85   -14.163916    211.58523    -99.69537   -154.38161    434.51976    23.497274    22.152516   0.77772067    435.29748   -3382.5936 
   20100   -101732.44    -91839.65    240.26822    20721    225985.68     21.79653   -191.78069    83.839938    173.33035    434.20711    23.495744    22.151074   0.93404303    435.14116   -3353.4101 
   20200   -101752.93   -91765.276     242.5722    20721    226164.16   -72.365455   -215.25522    130.34843   -132.18957    434.16822    23.506073    22.160811   0.95349142    435.12171   -3420.2484 
   20300   -101684.03   -91769.871    240.78726    20721    225891.77     1.983477    8.8644171    156.89584   -159.80982      434.039    23.495411    22.150759    1.0181022     435.0571   -3427.3374 
   20400   -101789.82   -91760.836    243.57608    20721    226256.27    23.842164    44.999558    139.37667   -112.84973    434.22614    23.509292    22.163846   0.92453171    435.15067   -3430.7297 
   20500    -101665.8   -91712.764    241.73146    20721    226196.22   -61.861051    -55.30192    172.15076   -302.43199    434.12897    23.508802    22.163384   0.97311707    435.10208   -3476.4814 
   20600      -101645   -91727.747    240.86238    20721     226297.6    22.463493    79.603859    218.06929   -230.28267    434.19627    23.512248    22.166632   0.93946326    435.13574   -3461.7892 
   20700   -101621.19   -91725.011    240.35061    20721    226046.42   -18.579707   -145.27103    -70.57347    160.10538    433.87701    23.507839    22.162476     1.099097     434.9761   -3472.4918 
   20800   -101680.33   -91706.437    242.23811    20721    226145.98   -18.006773   -61.810389   -58.829233    66.619304    434.31654    23.501115    22.156136   0.87932794    435.19587   -3490.8031 
   20900   -101645.36   -91715.759    241.16224    20721    226080.44    30.718842    31.037125   -144.50937    205.62877    434.00064     23.50626    22.160987    1.0372817    435.03792   -3485.4589 
   21000   -101717.05   -91740.271    242.30809    20721     226043.1   -55.166351    33.823337   -6.2391782   -193.08321    434.21808    23.498432    22.153608   0.92855886    435.14664   -3459.4544 
   21100   -101749.51   -91729.636    243.35474    20721    226095.45   -56.950096    -25.20282   -233.62375    87.976285    434.31157    23.498624    22.153788   0.88181493    435.19339   -3469.8243 
   21200   -101609.49   -91684.576    241.04859    20721    226147.28    49.749898   -112.70713    347.57088   -85.614058    433.99032    23.510014    22.164526    1.0424408    435.03276   -3518.6055 
   21300   -101651.88   -91718.371    241.25735    20721    226211.17   -20.735365   -62.328064     -39.7821    39.904068    434.21218    23.507327    22.161993    0.9315114    435.14369   -3482.7737 
   21400   -101658.13   -91654.734    242.95473    20721    226250.17   -3.1944089    41.606308    19.369542   -70.559076     434.1193    23.511868    22.166274   0.97795226    435.09725   -3545.8516 
   21500   -101610.27   -91626.827    242.47012    20721     226210.3   -17.753252    157.50936   -183.92598   -26.843136    434.36066    23.503263    22.158162   0.85726994    435.21793   -3575.8916 
   21600   -101639.85   -91675.639    242.00279    20721    226165.41   -16.929514    62.050981    25.906169   -138.74569    434.19524    23.505407    22.160183    0.9399801    435.13522   -3529.6902 
   21700   -101605.47   -91666.755    241.38362    20721    226286.85    6.3253234    19.811083   -171.11244    170.27733    434.10736    23.514096    22.168375    0.9839175    435.09128   -3537.0812 
   21800   -101599.55   -91628.298    242.17403    20721    226175.06     13.24843   -64.069427   -40.672551    144.48727    434.21145     23.50547    22.160243   0.93187621    435.14332   -3579.7388 
   21900   -101584.58   -91616.644     242.0934    20721     226238.2    13.274529    71.658713   -278.95627    247.12114    434.26774    23.507227    22.161899   0.90372926    435.17147    -3590.913 
   22000   -101562.92   -91615.996    241.58315    20721     226149.7    34.208322   -120.17393    42.343725    180.45517    433.95305    23.511149    22.165596    1.0610741    435.01413   -3596.4424 
   22100   -101628.94   -91623.216    243.01126    20721    226473.27     46.12032    108.86371   -80.268685    109.76593    434.18599     23.52165    22.175497   0.94460558    435.13059   -3582.5493 
   22200   -101539.36   -91608.261    241.19879    20721    226231.32   -58.573201    71.925742   -119.91767   -127.72768     434.2387    23.507656    22.162303   0.91825206    435.15695   -3599.1474 
   22300   -101613.17   -91622.751    242.63946    20721    226314.33   -36.302781   -152.30999    151.48962   -108.08797    434.30397    23.510201    22.164703   0.88561278    435.18959   -3583.8358 
   22400   -101549.68   -91632.985    240.84897    20721    226238.49     113.2016    137.41064     141.3704    60.823762    434.22505    23.508397    22.163002    0.9250759    435.15012   -3583.5698 
   22500   -101574.03   -91617.622    241.81353    20721     226247.7   -27.032015    107.48489   -107.84555   -80.735387    434.25627    23.508031    22.162657   0.90946599    435.16573   -3592.1454 
   22600   -101619.71   -91591.946    243.54634    20721    226314.48   -9.7038436   -44.752158   -177.81017     193.4508    434.36143    23.508654    22.163244   0.85688325    435.21832   -3618.0423 
   22700   -101551.33   -91602.128    241.63836    20721    226229.32    77.582738    140.57295    65.786745    26.388518    434.73082    23.494243    22.149658    0.6721918    435.40301   -3617.9003 
   22800   -101527.16   -91567.743    241.88653    20721    226183.89    10.670307    151.78871   -83.678494   -36.099296    434.58241    23.495894    22.151215   0.74639303    435.32881   -3651.7312 
   22900    -101607.8    -91606.92    242.89349    20721    226335.46    28.360853    89.919001   -31.466697    26.630255    434.69141    23.500818    22.155857   0.69189424    435.38331   -3610.3514 
   23000   -101574.25   -91612.442    241.94458    20721    226176.25   -42.812986    59.232065   -31.761465   -155.90956     434.5607    23.496084    22.151394   0.75724785    435.31795   -3607.8966 
   23100   -101543.24   -91609.953     241.2519    20721    226246.19    1.8543003   -74.585341    44.222392    35.925849    434.45707     23.50252    22.157461   0.80906663    435.26613   -3608.6212 
   23200   -101573.22   -91564.991    243.07209    20721    226307.45   -24.196258   -73.985568    57.059361   -55.662566    434.53487    23.503597    22.158476   0.77016628    435.30503   -3652.0406 
   23300   -101513.83   -91592.016     240.9731    20721    226253.53   -14.597891  -0.35979491   -114.01156    70.577684    434.34387    23.505963    22.160707   0.86566268    435.20954   -3628.6593 
   23400   -101663.81     -91610.9    244.15714    20721    226397.99   -49.202477   -123.69746   -4.7830095   -19.126958    434.43846    23.510906    22.165367   0.81837031    435.25683   -3603.7485 
   23500   -101566.19   -91577.325    242.60179    20721       226044   -32.205534    2.5542909   -189.96752    90.796622    434.24909     23.49764    22.152861   0.91305329    435.16215   -3650.5699 
   23600   -101538.81   -91547.455    242.66206    20721    226364.58    20.622289   -10.537839    211.62807   -139.22337    434.24706    23.514352    22.168616   0.91407142    435.16113   -3672.8214 
   23700   -101518.89   -91545.688    242.22131    20721    226264.74    97.892691    285.90257   -36.830188    44.605696    434.28868    23.508039    22.162665    0.8932622    435.18194   -3683.5818 
   23800   -101460.48   -91548.198    240.74172    20721    226394.42    19.471657    -36.65676   -6.9534486    102.02518      434.265    23.515416    22.169619   0.90510016     435.1701    -3675.275 
   23900   -101561.09   -91558.495    242.93523    20721    226221.13    60.986631    66.194219   -12.501322      129.267    434.09033    23.511143    22.165591   0.99243457    435.08277   -3671.9451 
   24000   -101462.32   -91529.822    241.23282    20721    226163.18   -13.434413    72.968021    26.003577   -139.27484    434.05423    23.509109    22.163673    1.0104846    435.06472   -3699.0096 
   24100   -101540.17   -91522.957    243.29031    20721    226502.61    54.510832   -13.631603    246.50991   -69.345814    434.38946    23.517664    22.171739   0.84286841    435.23233   -3700.5284 
   24200   -101551.41   -91511.964    243.83027    20721    226267.72   -43.428514    3.9615651   -410.48147    276.23436    434.06143    23.514347    22.168611    1.0068836    435.06832   -3715.8014 
   24300    -101485.4   -91526.607    241.87129    20721    226071.11   -102.25778    -220.4842    89.344441   -175.63358     433.6785    23.514503    22.168758    1.1983479    434.87685   -3702.2173 
   24400   -101531.68   -91537.306    242.73541    20721    226039.09   -23.241364    65.247421   -203.63824    68.666724    433.75556    23.510749     22.16522     1.159821    434.91538   -3699.8933 
   24500   -101533.39   -91536.984    242.78497    20721    226044.71    1.2833081    18.618899    14.296023   -29.064998    433.70954    23.512288    22.166671    1.1828297    434.89237   -3700.3922 
   24600   -101505.37   -91524.959    242.39642    20721    226153.56    12.929657    132.13255   -38.003325   -55.340259    434.14882    23.506048    22.160788   0.96319209    435.11201   -3712.0084 
   24700   -101507.93   -91506.677    242.90252    20721    225988.64   -7.9667709    10.164339   -186.99499    152.93033    434.02844    23.500734    22.155777    1.0233794    435.05182   -3734.1459 
   24800   -101503.22    -91496.15    243.04377    20721    226051.12   -31.428831    116.08614   -242.41638    32.043747    434.03731    23.503742    22.158614    1.0189446    435.05626   -3743.1751 
   24900    -101522.1   -91512.543    243.10425    20721    226051.38    15.510525   -273.25146    156.88295    162.90008    434.20739    23.499152    22.154286   0.93390539    435.14129   -3730.9249 
   25000   -101514.58   -91486.996    243.54197    20721    225986.48   -139.87347   -111.83282   -194.01417   -113.77342    434.03388    23.500474    22.155533    1.0206612    435.05454   -3751.3332 
   25100    -101567.7   -91486.272     244.8497    20721    225993.24   -116.04793   -178.84663   -204.55064    35.253467    434.15225    23.497622    22.152844   0.96147504    435.11372   -3753.2748 
   25200   -101522.85   -91487.887    243.72118    20721    225896.92    23.119018   -181.88041    210.76699    40.470473    433.88614    23.499817    22.154913    1.0945289    434.98067   -3763.0274 
   25300   -101475.63   -91445.136    243.61266    20721    225989.38    38.869472   -26.288787    235.12268   -92.225482    434.06865    23.499684    22.154788    1.0032749    435.07193    -3805.258 
   25400   -101526.41   -91473.876      244.148    20721    225842.93   -30.082718     -91.8381     50.76445   -49.174504     433.6753     23.50272     22.15765      1.19995    434.87525   -3778.1229 
   25500   -101436.46   -91432.528    242.96756    20721    226015.75    9.3698473   -19.571524   -130.08544     177.7665    433.86942     23.50645    22.161166    1.1028896    434.97231   -3815.4986 
   25600   -101452.51   -91465.348    242.56037    20721    226103.83    14.149604   -82.633952     60.97783    64.104934    433.89852    23.510242    22.164741    1.0883423    434.98686   -3784.3216 
   25700   -101514.94   -91446.112    244.54378    20721    225996.55    70.197271    95.378858    24.426408    90.786546    433.89885    23.504655    22.159474    1.0881739    434.98703   -3809.9159 
   25800   -101392.95    -91442.75    241.66274    20721    225952.82    154.23845    458.36565    18.333789   -13.984079    433.84954    23.503716    22.158589      1.11283    434.96237   -3819.0731 
   25900   -101429.46   -91388.955    243.85588    20721    225968.79   -69.878222   -17.857987   -32.717758   -159.05892    433.74491    23.507381    22.162044     1.165144    434.91006    -3862.116 
   26000   -101376.52   -91370.599    243.01598    20721    226017.44   -60.012557   -21.596707   -161.92197    3.4810047    433.74807    23.509826    22.164349    1.1635661    434.91163   -3880.8933 
   26100   -101348.61   -91355.986      242.693    20721    225993.81    2.5284128    -133.9793   -261.91353    403.47806    433.84439    23.505987     22.16073    1.1154034     434.9598   -3901.4276 
   26200    -101427.3   -91356.692    244.58709    20721    226003.56     20.82341   -53.323107   -116.51136     232.3047    433.90317    23.504902    22.159707    1.0860158    434.98918   -3901.5095 
   26300   -101314.03   -91337.625    242.29916    20721    225849.07    56.207361     25.99782    191.79339   -49.169125    433.71044    23.502087    22.157053     1.182382    434.89282   -3926.5576 
   26400    -101382.9   -91381.353    242.90977    20721    226130.36    94.146044    177.60987    87.904266    16.923992    433.81187    23.513969    22.168255    1.1316645    434.94354   -3877.6724 
   26500    -101415.7   -91329.408      244.968    20721    225832.21    11.969896    77.854548   -224.17289    182.22802    433.56846    23.505058    22.159854    1.2533681    434.82183   -3936.8753 
   26600    -101346.3   -91314.787    243.63745    20721    226007.29     39.00143   -142.71768    72.868402    186.85356    433.97024     23.50328    22.158177    1.0524799    435.02272   -3949.3389 
   26700   -101355.17   -91337.857    243.29255    20721    225957.95    7.8803587   -70.260038    69.524599    24.376514    433.82434    23.504665    22.159484    1.1254302    434.94977    -3924.964 
   26800   -101319.88   -91308.279    243.15384    20721    226084.22    20.245029    89.138352    151.54192   -179.94518    433.81643    23.511446    22.165877     1.129383    434.94582   -3952.2063 
   26900   -101427.98   -91329.212    245.27083    20721    225993.17    22.480631    247.94895    154.66816   -335.17522    434.04899    23.500413    22.155475    1.0131042     435.0621   -3937.5742 
   27000   -101428.53    -91319.31    245.52476    20721    225961.09   -45.684635   -149.06452   -218.19694    230.20755    434.05298    23.498637    22.153801    1.0111117    435.06409   -3944.8442 
   27100   -101421.39   -91311.031    245.55252    20721    226016.36    11.424766   -1.0421263   -7.1642064    42.480632    433.85557    23.506857     22.16155    1.1098174    434.96538   -3957.0718 
   27200   -101339.23   -91332.052    243.04645    20721    226081.26     34.84401    22.819574    133.71448   -52.002029    433.99135    23.506554    22.161264     1.041926    435.03327   -3934.2459 
   27300   -101374.02   -91345.402    243.56714    20721    226097.03  -0.17497308     129.2266   -249.15331    119.40179    433.97016    23.507947    22.162578    1.0525177    435.02268   -3920.2855 
   27400   -101427.32   -91323.675    245.38947    20721     226194.2    1.9821358    77.414488   -206.89837    135.43029    433.88496    23.515307    22.169516    1.0951202    434.98008   -3940.9341 
   27500      -101367   -91292.797    244.67425    20721    226172.14    65.660375    22.087495    136.28024    38.613392    433.95904    23.512153    22.166543    1.0580814    435.01712   -3975.8673 
   27600   -101360.13   -91287.359     244.6395    20721    226108.35   -28.685333   -160.64988    11.630743    62.963139    434.05398    23.506266    22.160993    1.0106083    435.06459   -3980.0745 
   27700   -101384.37   -91295.975    245.01898    20721    226187.53    73.502739   -53.045555    247.98416    25.569609    433.95284    23.513121    22.167455    1.0611792    435.01402    -3975.848 
   27800   -101238.89   -91256.221    242.45122    20721    226234.82    26.508153    60.425904   -91.155083    110.25364    434.24343    23.507709    22.162354   0.91588436    435.15932   -4012.8832 
   27900   -101371.03   -91295.567    244.70488    20721    226113.14    18.650659   -16.778148    96.368186   -23.638059    434.02917    23.507187    22.161861    1.0230125    435.05219    -3978.259 
   28000   -101209.85   -91288.401    240.96442    20721    226159.62    21.221602    14.028488   -52.400465    102.03678    434.12501    23.507007    22.161692   0.97509742     435.1001   -3982.4743 
   28100   -101259.46   -91270.295    242.60909    20721     226153.8    26.819342    178.08366    93.936247   -191.56188    434.11414    23.506999    22.161684   0.98052934    435.09467   -4005.5457 
   28200   -101321.02   -91263.572    244.26745    20721     226209.6   -33.277272   -80.903472   -44.354692    25.426347    434.26566    23.505797    22.160551   0.90476877    435.17043   -4008.3293 
   28300   -101246.87   -91251.628    242.75668    20721    226212.64    33.202548    108.71586    160.02615   -169.13437    434.22589    23.507031    22.161715   0.92465476    435.15055    -4024.722 
   28400   -101389.22   -91254.307     246.1487    20721    226096.27   -30.464573    -50.73176   -65.481372    24.819414    434.18692    23.502039    22.157008   0.94414045    435.13106   -4023.1629 
   28500   -101371.88     -91270.4    245.33682    20721    226101.67   -23.021652    124.88632    16.308538   -210.25981    434.04649    23.506122    22.160857    1.0143563    435.06084   -4009.2812 
   28600   -101348.19   -91286.041    244.38152    20721    226008.84    34.488535    65.464363    119.22413   -81.222892    434.10952    23.499589    22.154698   0.98283835    435.09236   -3999.7641 
   28700   -101395.21   -91257.985    246.20489    20721    225989.95   -24.004571    63.668546   -151.82931    16.147047    434.23898    23.495104     22.15047   0.91811241    435.15709   -4026.7586 
   28800   -101276.07   -91230.213    243.98576    20721    226023.42   -50.845123   -261.87167   -1.2869451    110.62324     434.1346    23.499668    22.154773   0.97030051     435.1049   -4051.6453 
   28900   -101326.39   -91267.217    244.30933    20721     225998.8    92.339463    175.70144    51.020089    50.296866    434.22317    23.495992    22.151307   0.92601259    435.14919   -4024.2364 
   29000   -101252.87   -91198.207    244.19982    20721     226052.4   -10.928789   -318.11648   -125.91026    411.24037    434.18493    23.499813    22.154909   0.94513661    435.13006   -4088.7806 
   29100      -101384   -91230.742    246.59423    20721       226039   -67.084503    75.545263   -184.04403   -92.754743    434.14715    23.500139    22.155217   0.96402591    435.11117   -4055.1946 
   29200   -101342.02   -91198.494    246.35792    20721    225993.24   -13.724326    162.28843    203.26824   -406.72965    434.24544      23.4951    22.150466   0.91487754    435.16032   -4092.5682 
   29300   -101264.86   -91225.645     243.8246    20721    226098.05    38.653655    49.064406    50.015331    16.881229    434.05458    23.505714    22.160473    1.0103084    435.06489    -4067.143 
   29400   -101269.34   -91249.241    243.36035    20721    225926.03    63.760742    105.43382   -26.596581    112.44499    433.71104    23.506075    22.160813    1.1820802    434.89312   -4048.3567 
   29500   -101230.09   -91247.958    242.43812    20721    226095.13   -8.8522918   -94.382168   -224.03595    291.86124    433.87625    23.510393    22.164883    1.0994749    434.97573   -4042.5503 
   29600   -101399.14    -91227.02    247.05237    20721    225919.47   -68.165881   -81.516946   -62.061628    -60.91907    433.69497    23.506169    22.160901    1.1901129    434.88509   -4068.8611 
   29700   -101384.46   -91265.945    245.75045    20721    225907.96   -68.238544    -8.115106    -255.6353    59.034773    433.83664    23.501732    22.156719    1.1192801    434.95592   -4030.6682 
   29800   -101260.49   -91231.595    243.57404    20721    225916.76   -10.509982   -179.88008    -25.64599    173.99613    433.73532    23.504934    22.159738    1.1699391    434.90526   -4068.4605 
   29900   -101342.56   -91220.049    245.84755    20721    225931.23    107.43979    164.09836    103.76524    54.455773    433.61247    23.509017    22.163586    1.2313665    434.84383   -4088.3471 
   30000   -101217.28   -91179.834    243.78165    20721    225980.14    -14.81285    46.923398    128.12864   -219.49059    433.63311    23.511002    22.165458    1.2210436    434.85416   -4120.8058 
   30100   -101172.79   -91135.306    243.78244    20721    225969.42    47.735886    94.953271    -122.5196    170.77398    433.64318    23.510171    22.164675    1.2160118    434.85919   -4167.3903 
   30200   -101192.75   -91135.841    244.25434    20721    225947.88   -26.578952   -98.578946    69.209741    -50.36765     433.5761    23.510869    22.165333    1.2495497    434.82565   -4164.1894 
   30300   -101338.81   -91156.793    247.29275    20721    225869.91   -78.715578   -48.451424   -33.801599   -153.89371    433.70084    23.503432    22.158321    1.1871812    434.88802   -4146.5847 
   30400   -101235.95   -91102.336    246.11727    20721    225803.97   -88.162821   -63.615978   -243.36677    42.494288    433.49428    23.505599    22.160364     1.290462    434.78474   -4202.5572 
   30500   -101150.83   -91106.375     243.9519    20721    225950.61    102.99403     215.9141    75.361851     17.70615    433.77272    23.505682    22.160443    1.1512382    434.92396   -4204.6425 
   30600   -101215.39   -91082.905    246.08989    20721    225756.08    3.9408864   -17.701446    104.73326   -75.209157    433.58714    23.500589    22.155641    1.2440278    434.83117   -4228.5085 
   30700   -101210.96    -91092.16    245.75734    20721    225801.94    37.092026    78.547069    62.512023   -29.783015    433.34281    23.509601    22.164137    1.3661926    434.70901   -4223.8229 
   30800   -101245.35    -91126.55    245.75742    20721    225675.72   -54.049883   -35.473817   -254.80224    128.12641    433.29888     23.50422    22.159064    1.3881578    434.68704   -4188.3914 
   30900   -101274.12   -91111.612    246.81898    20721    225790.25    21.903469  -0.58612557     196.4838   -130.18727    433.48887    23.505031    22.159829    1.2931636    434.78204   -4203.9858 
   31000   -101148.69    -91071.37    244.74996    20721    225505.47   -18.211144   -73.047803   -29.014896    47.429268    433.35564    23.493814    22.149254      1.35978    434.71542   -4252.9776 
   31100   -101146.18   -91047.072    245.27909    20721    225882.97   -58.716663   -122.92077   -54.228182   0.99896268    433.31196    23.514655    22.168902    1.3816201    434.69358   -4264.7441 
   31200   -101148.56   -91049.756    245.27188    20721    225859.83   -26.361662    147.92782    62.862828   -289.87564    433.25259    23.515062    22.169286    1.4113071    434.66389   -4266.9278 
   31300   -101101.63   -90989.779     245.5886    20721    225795.43    25.031582   -79.129138    130.92732    23.296563    433.39939    23.507727    22.162371    1.3379037     434.7373   -4330.4981 
   31400   -101190.66   -90980.806      247.969    20721    225871.64   -49.113551    24.896928    257.17187   -429.40945    433.62942    23.505457     22.16023    1.2228893    434.85231   -4335.4842 
   31500   -101120.37   -90947.218    247.07756    20721    225840.17    39.676459   -100.50906    -114.4189    333.95734    433.29494     23.51289    22.167237    1.3901315    434.68507   -4373.8999 
   31600    -101129.3   -90965.314    246.85488    20721    226217.74   -17.670017   -254.36138     24.76714    176.58419    433.59746    23.524326    22.178019    1.2388702    434.83633   -4344.8631 
   31700   -101085.86   -90979.611    245.45251    20721    225796.59    94.139876    354.35332    227.49106   -299.42476    433.41927    23.507248    22.161919    1.3279633    434.74724   -4350.1871 
   31800   -101207.42   -90967.771    248.69248    20721    225892.27   -45.788471   -116.71877    108.94767   -129.59432    433.53429    23.509109    22.163673    1.2704541    434.80475   -4354.5251 
   31900   -101104.04   -90973.039    246.05379    20721    225848.12   -65.515844   -49.845764   -104.37529   -42.326479    433.47742    23.508354    22.162961    1.2988922    434.77631   -4348.2294 
   32000   -101171.05   -91003.745    246.93554    20721    225758.67   -3.5962102    43.232919   -44.244613   -9.7769363    433.17313    23.511952    22.166353     1.451033    434.62417    -4324.925 
   32100   -101088.62   -90975.191    245.62697    20721    225808.24    59.522637    161.86358   -7.0840514    23.788386    433.17664    23.514437    22.168697    1.4492798    434.62592    -4355.769 
   32200   -101040.15   -90980.229    244.32745    20721     225784.4    25.488852    44.168112    1.1362259    31.162219    433.30557    23.509698    22.164228    1.3848162    434.69038    -4350.465 
   32300   -101157.11   -90999.885    246.69072    20721    225642.83   -13.913307      115.864    277.02545   -434.62937    433.14778    23.506606    22.161314    1.4637076    434.61149   -4335.0452 
   32400   -101167.94   -90980.331    247.42854    20721    225682.11   -72.981839   -163.13147   -25.981274   -29.832774    433.14188    23.508812    22.163394    1.4666584    434.60854   -4350.6184 
   32500   -101097.72   -90997.524    245.30559    20721    225719.36    53.146315    99.173751    83.031167   -22.765974    433.15114    23.510501    22.164986    1.4620277    434.61317   -4339.5842 
   32600   -101108.67   -90950.253    246.71956    20721    225711.16    16.120814    27.687063    87.849519   -67.174141    432.83312     23.51871    22.172724    1.6210395    434.45416   -4386.1241 
   32700   -101136.98   -90967.645    246.98477    20721     225648.2    -91.94405   -26.752647   -170.13718   -78.942319    433.10974    23.507918    22.162551    1.4827277    434.59247   -4366.8003 
   32800   -101170.27   -90959.212    247.99817    20721    225867.66    126.20753    69.677853   -185.46944    494.41417    433.50833    23.508532    22.163129     1.283434    434.79177   -4383.4214 
   32900   -101004.69   -90940.438    244.43263    20721    225808.47    84.196753     158.4942   -51.143752    145.23981    433.48376    23.506118    22.160853    1.2957196    434.77948   -4400.3342 
   33000   -101193.61   -90911.876    249.71457    20721    225841.06   -156.22375   -159.59214   -60.506166   -248.57294    433.64255     23.50351    22.158395    1.2163245    434.85888   -4418.9623 
   33100   -101100.67   -90892.444    247.92938    20721    225614.55   -16.739955    53.113711   -5.0137991   -98.319777    433.30436    23.500886    22.155921    1.3854177    434.68978   -4452.6661 
   33200   -101043.55   -90920.836    245.85251    20721    225877.45    75.434981    46.012789    292.36504   -112.07288    433.66093    23.504905     22.15971     1.207134    434.86807   -4421.2629 
   33300   -101067.56   -90894.077    247.08559    20721    225834.19   -2.0236664   -82.556401    122.73095   -46.245551    433.27786    23.513041    22.167381    1.3986685    434.67653   -4446.6534 
   33400   -101058.65    -90891.34    246.93558    20721    225939.67    64.858858     105.9656    161.16627   -72.555297    433.55981    23.510883    22.165346    1.2576942    434.81751   -4450.8557 
   33500   -100998.63    -90847.06    246.55335    20721    226007.99   -9.5402428    8.2721808    59.167484   -96.060393    433.82089    23.507362    22.162026    1.1271572    434.94804   -4490.0069 
   33600   -101013.62   -90850.662    246.82998    20721    225859.51    8.6630777   -20.094239    122.95435   -76.870875    433.71284    23.502565    22.157504    1.1811781    434.89402   -4492.6993 
   33700   -101014.26   -90824.077    247.49105    20721    225816.75    6.2817134   -65.959763    16.716462    68.088441    433.46964    23.506932    22.161621    1.3027795    434.77242   -4522.0754 
   33800   -100973.22   -90798.928    247.10517    20721    225855.15    70.474399    251.08089    63.993298   -103.65099    433.68807     23.50301    22.157923    1.1935652    434.88163   -4549.9317 
   33900   -100970.16   -90823.108    246.44361    20721    226034.38    -33.01657   -81.318852   -146.59493    128.86407    433.88903    23.506888    22.161579    1.0930867    434.98211    -4517.333 
   34000   -101053.22   -90815.568    248.64408    20721    225869.57    11.889297    79.344257   -57.133412    13.457047     433.7087    23.503201    22.158103    1.1832512    434.89195   -4532.1415 
   34100   -100999.75   -90766.714    248.53181    20721    225942.67    15.235355   -19.640495    89.034688   -23.688128    433.79901    23.504557    22.159382    1.1380946    434.93711   -4581.3185 
   34200   -100966.03   -90746.393    248.20642    20721    226066.43   -3.0589077    44.907353     -10.2415   -43.842577    433.64053    23.515289    22.169499    1.2173355    434.85786   -4598.5901 
   34300   -101052.15   -90752.218    250.15665    20721    226074.69    43.350066    21.418608    10.160811     98.47078    433.75253    23.512682    22.167042    1.1613338    434.91387   -4594.7981 
   34400   -100916.89       -90813    245.39541    20721    225966.37    74.693155   -90.680034    148.87255    165.88695    433.45054    23.515236     22.16945    1.3123322    434.76287   -4540.3418 
   34500   -100977.78   -90701.207     249.5892    20721    226094.12   -84.488017   -30.612494   -371.48093    148.62938    433.63046    23.517002    22.171115    1.2223715    434.85283   -4641.5914 
   34600   -100899.99    -90692.76    247.90505    20721    226099.77    92.192258    243.63228   -38.045707    70.990198    433.92184    23.509399    22.163947    1.0766819    434.99852   -4660.6443 
   34700   -100802.31   -90686.611    245.68214    20721    226080.69   -11.628919    151.37244   -87.281919   -98.977276    433.86547    23.509934    22.164451     1.104865    434.97034   -4660.2355 
   34800   -100918.59   -90718.979    247.72014    20721    226082.89     121.4047    65.902154    111.69149    186.62045    433.88666    23.509474    22.164018    1.0942706    434.98093   -4636.8698 
   34900   -100909.13   -90723.033    247.39202    20721    226032.91    14.123079    152.69169   -83.368394   -26.954057    433.82857    23.508449    22.163051    1.1233138    434.95189   -4630.5027 
   35000   -100888.62   -90743.637    246.39327    20721    226196.41    17.327374    98.557213    105.40327   -151.97836    434.01439    23.511915    22.166319    1.0304058    435.04479   -4607.5405 
   35100   -100970.03   -90750.658    248.20016    20721    226069.51   -5.6066736    122.09581    21.097807   -160.01363    433.86743    23.509299    22.163853    1.1038851    434.97131   -4604.1121 
   35200   -100951.79    -90695.02    249.10829    20721    226078.48   -80.117885    89.885586   -408.00315    77.763911    433.87266    23.509624    22.164159    1.1012694    434.97393   -4656.9176 
   35300   -100985.74   -90713.909    249.47408    20721    226360.26    52.138186   -70.934519     -127.446    354.79508    433.89019    23.523795    22.177519    1.0925044     434.9827   -4639.4331 
   35400   -100822.22   -90731.726    245.06988    20721    226137.92    39.006926    210.15291   -150.08355    56.951424    433.76702    23.515578    22.169772    1.1540894    434.92111   -4627.2754 
   35500   -100893.84   -90693.892    247.72841    20721    226233.08    126.77497    141.18856    314.45568   -75.319321    433.90326    23.516832    22.170954    1.0859707    434.98923   -4668.8769 
   35600   -100960.75   -90743.242    248.15475    20721    226192.49    24.845081    46.826354     167.8992   -140.19031    434.03329    23.511199    22.165644    1.0209536    435.05425   -4617.6877 
   35700   -101038.23   -90728.035    250.40598    20721    225846.13   -73.015978   -139.12001   -76.675895   -3.2520252    433.53097    23.506798    22.161495     1.272114    434.80309   -4639.8117 
   35800   -100911.24   -90693.573    248.15856    20721     226212.6    30.826517    85.258634    -171.5622    178.78312    433.96942    23.513975     22.16826    1.0528903    435.02231   -4668.3908 
   35900   -100927.03   -90656.095    249.45248    20721     226353.3    10.236155    6.4086246   0.63359697    23.666244    434.01766    23.519979    22.173921    1.0287717    435.04643   -4702.6062 
[...]
  491300   -93244.095   -80410.464    311.69312    20721    221088.22   -84.812442   -123.25211    -100.1367   -31.048514    422.70005    23.553957    22.205954    6.6875763    429.38762   -22665.145 
  491400   -93224.615   -80377.872    312.01158    20721    221166.83   -136.96045   -102.31491    -208.9983   -99.568149     422.7807    23.555896    22.207783    6.6472484    429.42795   -22694.206 
  491500    -93290.33   -80360.614    314.02677    20721       221178   -13.624084   -24.949457    81.488901   -97.411697    423.06693    23.548521     22.20083    6.5041368    429.57106   -22718.845 
  491600   -93328.486   -80391.967    314.19199    20721    220653.42   -56.923536    50.741619   -304.58017    83.067944    422.62122    23.532978    22.186177     6.726992    429.34821   -22707.624 
  491700   -93375.435   -80426.279    314.49893    20721    220568.93    38.251561   -305.20465   -3.2417731     423.2011    421.93092    23.547712    22.200067    7.0721382    429.00306   -22683.032 
  491800    -93139.24   -80404.532    309.29057    20721    221103.86    57.304579   -125.14585    249.71997    47.339614    422.57862    23.558174     22.20993    6.7482889    429.32691   -22687.927 
  491900   -93305.432    -80391.39    313.64609    20721    220781.08    48.619266   -107.39149    121.28149     131.9678     422.1144    23.553913    22.205913    6.9804021     429.0948   -22714.078 
  492000   -93179.134    -80409.46    310.13979    20721    220917.16    24.295038    12.361928    95.492857   -34.969671    421.87337      23.5679      22.2191    7.1009171    428.97428   -22692.027 
  492100    -93205.81   -80347.084    312.30261    20721    221224.12    35.706435    100.46551   -76.755511    83.409302    421.86006     23.58464    22.234881    7.1075681    428.96763   -22744.756 
  492200   -93226.203   -80354.155    312.62615    20721    221080.49   -102.04883   -269.28563    12.990153      -49.851    421.49729    23.587127    22.237226    7.2889574    428.78624   -22740.205 
  492300   -93209.353   -80385.715    311.45042    20721    221034.32   -28.144459   -92.414214    254.31691   -246.33607    421.30822    23.589955    22.239892    7.3834888    428.69171   -22715.106 
  492400   -93195.818   -80406.479    310.61743    20721     220692.8   -31.370796    31.210961    29.060043   -154.38339    420.86253    23.584201    22.234468     7.606334    428.46887   -22709.326 
  492500   -93325.822   -80418.394    313.48547    20721     221124.9    87.404272   -94.927849    95.006554    262.13411    421.02297     23.60278    22.251983    7.5261164    428.54908   -22689.817 
  492600   -93149.259   -80397.897    309.69505    20721     220927.1      39.8781   -55.927137   -113.54705    289.10849    420.94606    23.594375     22.24406    7.5645695    428.51063   -22714.441 
  492700   -93339.283   -80417.202    313.84135    20721    220744.27    27.657722    169.12432   -118.87311    32.721961    421.37092    23.572718    22.223642    7.3521411    428.72306   -22705.086 
  492800   -93239.749    -80372.58    312.50767    20721    221022.47     12.04887     126.4808   -149.47387    59.139674    421.81811    23.575061     22.22585    7.1285427    428.94666   -22739.213 
  492900   -93276.997   -80395.553    312.85438    20721     220725.4   -3.6225108   -162.04059    -30.47779    181.65085    421.57481    23.566009    22.217317    7.2501937    428.82501   -22729.689 
  493000   -93186.881   -80408.359     310.3547    20721    220753.36    166.43291    22.885936     44.84748    431.56532    421.53555    23.568599    22.219759    7.2698231    428.80538   -22726.667 
  493100   -93278.241   -80384.261    313.15883    20721    221038.02   -88.890999    28.101894   -351.22904     56.45415     421.8659    23.574554    22.225373    7.1046488    428.97055   -22730.024 
  493200   -93173.288   -80407.667    310.04136    20721    220831.29    19.477037    28.609098    209.83667   -180.01465    421.92384     23.56191    22.213452    7.0756783    428.99952   -22718.904 
  493300    -93214.94   -80395.937    311.33787    20721    220602.47    6.9749923   -63.510611    6.9159287    77.519659    421.39465    23.564482    22.215877    7.3402773    428.73492   -22741.469 
  493400   -93193.039   -80404.241    310.60426    20721    220810.38    48.976315   -36.210268    95.437445    87.701769    421.23496    23.580052    22.230556      7.42012    428.65508    -22726.76 
  493500   -93296.597   -80477.608    311.33753    20721    220975.94   -46.000109  -0.95116206    -19.60173   -117.44743    420.83456    23.600109    22.249465    7.6203176    428.45488   -22649.508 
  493600   -93341.437   -80497.131    311.95241    20721    220677.03   -203.43455   -246.93968   -31.846786   -331.51719    420.47969    23.594092    22.243792    7.7977531    428.27745   -22638.042 
  493700   -93214.682   -80492.974    308.97484    20721     220722.7   -55.229215   -147.76581    53.346516   -71.268346    420.82001     23.58699    22.237097    7.6275931    428.44761   -22649.311 
  493800   -93330.844    -80474.12      312.254    20721    220884.71   -3.7388188   -279.97131   -128.62795     397.3828    420.62037    23.601244    22.250535    7.7274132    428.34779   -22667.094 
  493900   -93209.202    -80444.31    310.02365    20721    221162.27    133.13002    65.333488     434.8416   -100.78504    420.53605    23.618435    22.266743    7.7695763    428.30562   -22693.412 
  494000   -93230.209    -80454.62    310.28346    20721    221014.59     85.33517    107.04257    62.970014     85.99293    420.33673    23.616145    22.264584    7.8692368    428.20596   -22688.479 
  494100   -93332.581   -80488.391    311.94957    20721    220762.64     -29.2687    25.495249   -62.707864   -50.593485    420.19462    23.606672    22.255653    7.9402903    428.13491   -22661.261 
  494200   -93156.935   -80472.451    308.07077    20721    220512.92    182.22413     463.8097    170.10543   -87.242751    420.26396     23.59137    22.241226    7.9056185    428.16958   -22696.397 
  494300   -93059.393   -80402.225    307.40733    20721    220452.82    48.467565    140.53422   0.75669584    4.1117822    420.64513    23.577465    22.228118    7.7150341    428.36017   -22764.272 
  494400   -93229.147   -80425.289    310.97002    20721    220370.92   -11.992981   -54.258148    6.5491832    11.730022    420.75236    23.570081    22.221156    7.6614215    428.41378   -22743.682 
  494500   -93284.081   -80410.191    312.67092    20721    220403.15    90.849513   -43.252194    -36.95677     352.7575    420.67392    23.574002    22.224853    7.7006424    428.37456   -22766.321 
  494600   -93188.441   -80381.844    311.03655    20721     220521.3   -56.416153   -253.29794    67.380646    16.668833    420.82905    23.575973    22.226711    7.6230742    428.45213   -22782.311 
  494700   -93283.496   -80452.004     311.6412    20721    220332.04    21.219037    150.53808   -67.977544   -18.903425    420.65437    23.570746    22.221783    7.7104156    428.36478   -22727.804 
  494800   -93311.121   -80458.892    312.14481    20721    220130.19    119.41677    293.36045    36.199851    28.689998     420.3228    23.569238    22.220361    7.8762012      428.199   -22735.978 
  494900   -93302.737   -80444.132    312.29968    20721    220635.77   -99.022817   -50.546748   -201.25083   -45.270876    420.43235    23.593214    22.242965    7.8214265    428.25377   -22723.302 
  495000   -93271.289   -80469.216    310.92666    20721    220144.72    25.896211   -15.151767    189.37023   -96.529832    420.26384    23.571669    22.222653    7.9056803    428.16952   -22726.169 
  495100   -93272.827   -80450.639    311.41521    20721    220003.97   -39.318737   -57.601505   -340.94425    280.58955    420.05352    23.570031    22.221109    8.0108424    428.06436   -22745.513 
  495200   -93284.214   -80433.197    312.11538    20721    220434.38   -176.67896   -156.51871    85.054189   -458.57236     420.0714    23.592574    22.242361    8.0019006     428.0733   -22742.344 
  495300   -93335.436   -80454.223    312.84878    20721    220245.26   -21.884992   -25.601467   -413.76085    373.70734    420.19476    23.578989    22.229554    7.9402219    428.13498   -22739.463 
  495400   -93220.734   -80540.768    307.96103    20721    220088.32   -62.385068    32.540186   -120.37031   -99.325078    420.20856      23.5702    22.221268    7.9333206    428.14188   -22655.913 
  495500   -93292.969   -80513.313    310.38224    20721     220469.2   -28.232124   -291.35164   -198.30317    404.95844    420.50322    23.582319    22.232694    7.7859899    428.28921   -22673.214 
  495600   -93174.215   -80538.435    306.88789    20721    220589.86   -38.285424    144.55927   -45.650261   -213.76528    420.26017    23.595591    22.245206    7.9075134    428.16769    -22642.96 
  495700   -93316.451   -80541.896    310.25833    20721    220381.07   -67.223619   -172.65348    75.146397   -104.16377    420.06124    23.590006    22.239941    8.0069795    428.06822   -22651.788 
  495800   -93314.631   -80543.111    310.18465    20721    220106.12   -1.2415937    28.462594    118.12993   -150.31731     419.7556    23.583868    22.234153    8.1597999     427.9154   -22665.547 
  495900   -93215.313   -80537.231    307.91528    20721    220236.74    -120.9425   -209.97045     164.9689   -317.82594    419.74312    23.591215     22.24108    8.1660424    427.90916   -22660.491 
  496000   -93285.901    -80538.42     309.6008    20721    220041.79    2.3205038    125.27855    36.890008   -155.20705    419.45823    23.588778    22.238783    8.3084866    427.76671    -22676.84 
  496100   -93304.131   -80550.058     309.7609    20721    220072.32      54.8671   -108.81459   -161.00475    434.42064    419.11161    23.600167     22.24952    8.4817938    427.59341    -22669.12 
  496200   -93375.086   -80540.466    311.71714    20721    220332.72   -25.617265    82.827001   -494.47809    334.79929    419.28167    23.609336    22.258164    8.3967666    427.67843   -22667.885 
  496300    -93480.95   -80576.789    313.40611    20721    219847.84   -49.267321    64.215179   -150.38458   -61.632564    419.30329    23.582736    22.233086     8.385956    427.68924   -22650.784 
  496400   -93418.581   -80511.946     313.4662    20721    220414.96   -157.96627    18.890595   -217.44225   -275.34714    419.80366    23.599057    22.248473    8.1357712    427.93943   -22691.517 
  496500   -93387.824   -80580.094    311.06407    20721    219963.93   -38.020289   -82.721006    12.981185   -44.321046    419.72643    23.577067    22.227742    8.1743838    427.90082   -22648.476 
  496600   -93476.547   -80555.541    313.81522    20721    220110.75    17.852528    56.231121     18.71734   -21.390877     420.0349    23.576273    22.226994    8.0201484    428.05505   -22672.609 
  496700   -93312.672   -80592.945    308.92671    20721    220095.32    99.901902    139.36192   -18.373183    178.71697    419.97677    23.577078    22.227753    8.0492135    428.02599   -22639.259 
  496800   -93355.751   -80542.407    311.20042    20721    220164.24    1.0788817   -44.824388    5.8747616    42.186272    420.33439    23.570736    22.221773    7.8704026     428.2048   -22686.643 
  496900    -93362.63   -80517.738    311.96663    20721    220088.94   -66.704189    -130.1972   -296.40488    226.48951    420.17013    23.571311    22.222315    7.9525343    428.12267   -22711.709 
  497000   -93324.178   -80495.237    311.57922    20721    220053.11    1.4792603    51.979347   -241.87679    194.33522    420.09398    23.571528     22.22252    7.9906085    428.08459   -22741.143 
  497100   -93383.766   -80535.406    312.05087    20721    220116.14   -66.996563    265.74606   -287.07942   -179.65633    419.83485    23.582178    22.232561    8.1201726    427.95503   -22696.111 
  497200   -93244.929   -80535.728    308.67109    20721     220268.7    31.177919   -89.435895    289.71056    -106.7409    419.92049    23.587943    22.237996    8.0773544    427.99785   -22696.089 
  497300   -93297.959   -80587.039    308.71283    20721    220132.63   -5.2583177   -19.586158    68.579865    -64.76866    419.67347    23.587595    22.237668    8.2008644    427.87434   -22648.174 
  497400   -93337.341   -80549.663    310.57706    20721     220014.8    131.56093    236.25555   -76.740559     235.1678    419.52361    23.585493    22.235686    8.2757936    427.79941    -22697.65 
  497500    -93276.26     -80562.5     308.7818    20721    220225.93    79.049429     100.2983   -193.22076    330.07075     419.6354    23.593663    22.243388    8.2198985     427.8553   -22676.675 
  497600   -93372.483   -80529.905    311.91042    20721    220503.74    108.64757    164.53179    105.19974    56.211163    419.89214    23.601322    22.250609    8.0915322    427.98367   -22700.788 
  497700   -93417.169   -80547.618    312.56551    20721       220475     -149.813   -262.23121    8.7426781   -195.95047    420.03368    23.595807    22.245409    8.0207584    428.05444   -22675.419 
  497800   -93311.166   -80489.326    311.40676    20721    220861.95   -9.8073401   -109.12909    362.69686   -282.98979    420.19258    23.612038    22.260712    7.9413098    428.13389   -22726.296 
  497900   -93256.109    -80479.26    310.31407    20721    220693.72   -117.01483   -165.66395   -339.66771    154.28717      419.863    23.612306    22.260964    8.1060997     427.9691   -22739.019 
  498000   -93195.474   -80464.774    309.19321    20721    220815.92    48.566089    250.89553     408.0152   -513.21246    420.52823    23.600153    22.249507    7.7734828    428.30172   -22758.878 
  498100   -93188.574   -80491.871    308.36755    20721     220828.3    141.10427    236.51914    171.45921    15.334456    420.78138    23.593715    22.243437    7.6469112    428.42829   -22735.729 
  498200   -93328.785       -80486    311.91546    20721    220678.44   -54.327324   -70.505959    82.595003   -175.07102    420.43551    23.595407    22.245032    7.8198442    428.25536   -22741.405 
  498300   -93130.231   -80499.782    306.75842    20721    220579.29   -57.520763      4.25611   -364.13806    187.31966    420.57371     23.58623     22.23638    7.7507471    428.32445   -22731.863 
  498400   -93287.138   -80465.716    311.39661    20721    220623.31    93.969161    113.96319   -119.55181     287.4961    421.04969    23.575246    22.226025    7.5127534    428.56245    -22775.95 
  498500   -93192.099    -80441.75    309.67044    20721    220760.31   -24.763366    107.42851    65.141364   -246.85998    421.47889    23.570554    22.221602    7.2981542    428.77705   -22791.213 
  498600   -93223.184   -80423.822    310.86083    20721    220656.87   -29.788595   -228.64657    20.192448    119.08834    421.37115    23.568044    22.219236    7.3520226    428.72318   -22814.659 
  498700   -93198.192   -80446.428    309.70481    20721    220234.26    1.8115784    108.84041   -95.382348   -8.0233251    420.89542    23.558767    22.210489    7.5898881    428.48531   -22809.443 
  498800   -93168.281   -80474.233    308.30304    20721    220200.61    68.432579    124.97807   -331.33265    411.65231    421.04551    23.552768    22.204833    7.5148446    428.56036   -22790.478 
  498900   -93174.757    -80389.31    310.52289    20721    220365.54    38.305404    30.324181    82.869045    1.7229859    421.07555    23.560746    22.212355    7.4998268    428.57537   -22868.253 
  499000   -93076.701   -80390.222    308.11922    20721    220309.45    18.725802    -162.6252    81.676675    137.12593    420.83297    23.564536    22.215929    7.6211151    428.45408   -22869.504 
  499100   -93242.728   -80413.321    311.59054    20721    220436.17     57.50902   -15.346579   -68.722905    256.59654    420.65731    23.576233    22.226956    7.7089439    428.36626   -22848.325 
  499200   -93161.351   -80421.528    309.41478    20721    220422.04    160.72239    174.31243    32.295811    275.55893    420.86059    23.569783    22.220875    7.6073025     428.4679   -22844.535 
  499300   -93162.815   -80420.631    309.47214    20721    220743.53    2.7110024    68.633368   -193.48045    132.98009    421.10478    23.580126    22.230626    7.4852105    428.58999   -22830.172 
  499400   -93169.203   -80471.232    308.39832    20721    220368.61   -36.793002     57.24641   -146.79383   -20.831584    421.04939    23.561643      22.2132    7.5129049     428.5623   -22791.968 
  499500   -93315.916   -80483.472     311.6643    20721    220899.57   -11.960622   -97.237659   -179.87004    241.22583    421.28529    23.583405    22.233717    7.3949562    428.68024   -22765.872 
  499600   -93200.907   -80434.203    310.06767    20721    220759.98    35.778308    28.828695   -306.07662    384.58285    421.06137     23.58222      22.2326    7.5069172    428.56828   -22821.093 
  499700   -93352.768   -80441.433    313.58035    20721    220840.72    100.59298    40.184704    64.725498    196.86875    421.16681     23.58358    22.233882    7.4541962      428.621   -22816.432 
  499800   -93315.343   -80421.053    313.16636    20721    220781.06   -194.68338   -195.75682   -96.803611   -291.48972    421.10903    23.582012    22.232404    7.4830841    428.59212   -22828.051 
  499900   -93154.823   -80407.648    309.59336    20721    220612.77    65.812245     177.1319   -16.699278    37.004111    421.28975    23.567965    22.219161    7.3927256    428.68247   -22858.946 
  500000   -93212.075   -80400.865    311.14858    20721    220734.24    -44.48679    47.980376     101.1942   -282.63495    421.21461    23.576555    22.227259    7.4302939    428.64491   -22856.884 
Loop time of 50514.6 on 32 procs for 500000 steps with 20721 atoms

Performance: 1.710 ns/day, 14.032 hours/ns, 9.898 timesteps/s
97.3% CPU use with 32 MPI tasks x no OpenMP threads

MPI task timing breakdown:
Section |  min time  |  avg time  |  max time  |%varavg| %total
---------------------------------------------------------------
Pair    | 6286.8     | 9013.1     | 12304      |2419.2 | 17.84
Bond    | 0.38662    | 0.45704    | 0.562      |   7.5 |  0.00
Kspace  | 8132.1     | 11438      | 14179      |2160.7 | 22.64
Neigh   | 8104.5     | 9825.2     | 11510      |1217.3 | 19.45
Comm    | 296.9      | 3726.1     | 7046.3     |4154.3 |  7.38
Output  | 27.323     | 197.96     | 231.12     | 277.1 |  0.39
Modify  | 12763      | 16275      | 21011      |2374.8 | 32.22
Other   |            | 38.82      |            |       |  0.08

Nlocal:    647.531 ave 693 max 604 min
Histogram: 4 2 2 8 4 1 0 4 3 4
Nghost:    7309.88 ave 7787 max 6775 min
Histogram: 4 3 6 1 1 3 1 0 9 4
Neighs:    238486 ave 271140 max 212650 min
Histogram: 5 3 7 3 2 1 0 4 3 4
FullNghs:  476974 ave 540680 max 425344 min
Histogram: 5 2 10 1 2 1 0 4 3 4

Total # of neighbors = 15263160
Ave neighs/atom = 736.603
Ave special neighs/atom = 2
Neighbor list builds = 500000
Dangerous builds not checked
write_data production.R1
PPPM initialization ...
  extracting TIP4P info from pair style
WARNING: Using 12-bit tables for long-range coulomb (../kspace.cpp:316)
  G vector (1/distance) = 0.345963
  grid = 400 48 48
  stencil order = 5
  estimated absolute RMS force accuracy = 0.000400514
  estimated relative force accuracy = 1.20614e-06
  using double precision FFTs
  3d grid and FFT values/proc = 67260 38400
write_restart restartproduction.R1
PPPM initialization ...
  extracting TIP4P info from pair style
WARNING: Using 12-bit tables for long-range coulomb (../kspace.cpp:316)
  G vector (1/distance) = 0.345963
  grid = 400 48 48
  stencil order = 5
  estimated absolute RMS force accuracy = 0.000400514
  estimated relative force accuracy = 1.20614e-06
  using double precision FFTs
  3d grid and FFT values/proc = 67260 38400
Total wall time: 14:01:55
