LAMMPS (30 Jul 2016)
# Sets up LAMMPS simulation for transient melting of ice: TIP4P/Ice
# Ensure cold thermostats do not move
# Thinbox: 16x1x1
# Defects
# Order param l=2

#### setting MD parameters ####
units real
boundary p p p
atom_style full

# read ice box in restart file
### read the equilibrated NPT restart file

read_restart restart.state
  orthogonal box = (0.427722 0.0230805 0.0217596) to (435.647 23.5081 22.1627)
  32 by 1 by 1 MPI processor grid
  20736 atoms
  13824 bonds
  6912 angles
  2 = max # of 1-2 neighbors
  1 = max # of 1-3 neighbors
  1 = max # of 1-4 neighbors
  2 = max # of special neighbors


#### force field definition ####
pair_style      lj/cut/tip4p/long 2 1 1 1 0.1577 10.0
pair_modify	tail yes

kspace_style	pppm/tip4p 1.0e-6

bond_style	harmonic
angle_style	harmonic
dihedral_style	none
improper_style	none

bond_coeff	1 450.0 0.9572
angle_coeff	1 55.0 104.52


# reset pair coeff
pair_coeff	* * 0.0 0.0

#OO
pair_coeff	2 2 0.21085 3.1668
#OH
pair_coeff	* 1 0.0000 0.0000

neighbor        2.0 bin
neigh_modify    every 1 delay 1 check no

timestep	2.0
fix		constraints all shake 0.000001 20 0 b 1 a 1
  0 = # of size 2 clusters
  0 = # of size 3 clusters
  0 = # of size 4 clusters
  6912 = # of frozen angles

group water type 1 2
20736 atoms in group water

#*********** SIMULATION PARAMETER TO ADJUST ****************
#Box dimensions
variable lx equal lx
variable ly equal ly
variable lz equal lz

### Temperature of the hot and cold regions ####
variable thi equal 375
variable tlo equal 215
variable runpressure equal 0.986923


# Configuration equilibrated in density and temperature

# Define dx here

variable lx equal lx
variable ly equal ly
variable lz equal lz

variable xlo equal xlo
variable xhi equal xhi

variable boxcentre equal ${xlo}+(${xhi}-${xlo})/2
variable boxcentre equal 0.427722389414014+(${xhi}-${xlo})/2
variable boxcentre equal 0.427722389414014+(435.647477610585-${xlo})/2
variable boxcentre equal 0.427722389414014+(435.647477610585-0.427722389414014)/2

variable dx equal 2.0

#### ADD IN DEFECTS AT THE CENTRE OF THE HOT THERMOSTAT #####
variable y1 equal ${ly}/2.0
variable y1 equal 23.4850390576215/2.0
variable z1 equal ${lz}/2.0
variable z1 equal 22.1409808668416/2.0

region kill1 sphere ${boxcentre} ${y1} ${z1} 3
region kill1 sphere 218.0376 ${y1} ${z1} 3
region kill1 sphere 218.0376 11.7425195288107 ${z1} 3
region kill1 sphere 218.0376 11.7425195288107 11.0704904334208 3
delete_atoms region kill1 compress no bond yes mol yes
Deleted 15 atoms, new total = 20721
Deleted 10 bonds, new total = 13814
Deleted 5 angles, new total = 6907
############


variable thip equal ${thi}*2.0/3.0
variable thip equal 375*2.0/3.0
variable tlop equal ${tlo}*2.0/3.0
variable tlop equal 215*2.0/3.0
variable hbl equal ${boxcentre}-${dx}
variable hbl equal 218.0376-${dx}
variable hbl equal 218.0376-2
variable hbh equal ${boxcentre}+${dx}
variable hbh equal 218.0376+${dx}
variable hbh equal 218.0376+2

#***************************************************
## EQUILIBRATION PERIOD - to reach the steady state ###
#run 0

#reset the timestep to start your production run
reset_timestep 0

# define a group to perform averages
#group s1 type 1
###*** SYSTEM THERMOSTATTING: HOT and COLD regions ***###

fix NVE all nve
fix PRESS all press/berendsen aniso ${runpressure} ${runpressure} 500000 couple yz
fix PRESS all press/berendsen aniso 0.986923 ${runpressure} 500000 couple yz
fix PRESS all press/berendsen aniso 0.986923 0.986923 500000 couple yz


### Apply THERMOSTATS ###

#set up the "hot region" in the middle of the box
region hot block ${hbl} ${hbh} 0 ${ly} 0 ${lz} units box
region hot block 216.0376 ${hbh} 0 ${ly} 0 ${lz} units box
region hot block 216.0376 220.0376 0 ${ly} 0 ${lz} units box
region hot block 216.0376 220.0376 0 23.4850390576215 0 ${lz} units box
region hot block 216.0376 220.0376 0 23.4850390576215 0 22.1409808668416 units box


#set up the "cold region" at the left end of the box
#region cold block ${cbl} ${cbh} 0 ${ly} 0 ${lz} units box

#set up the "cold region" at the right end of the box
#region cold2 block ${h2bl} ${xhi} 0 ${ly} 0 ${lz} units box


#Cold regions  unification
#region cold union 2 cold1 cold2 units box

#Create group of cold molecules
####group cool_ice region cold
####group cool_ice include molecule

####compute cold_temp cool_ice temp
####fix cold_rescale water temp/rescale 1 ${tlo} ${tlo} 0.0001 1.0
####fix_modify cold_rescale temp cold_temp

#this calculates the temperature using only the atoms in the "hot region"
#compute hot_temp all temp/region hot

# calculate the temperature using only WATER in the "hot region"
compute hot_temp water temp/region hot

#this calculates the temperature using only WATER in the "cold region"
#compute cold_temp water temp/region cold


#set up a basic velocity rescale for the hot region WATER with thip
fix hot_rescale water temp/rescale 1 ${thip} ${thip} 1.0 1.0
fix hot_rescale water temp/rescale 1 250 ${thip} 1.0 1.0
fix hot_rescale water temp/rescale 1 250 250 1.0 1.0
#change the thermostat to only act on the "hot region"
#this is done by passing it the "hot temp" compute that we defined above
fix_modify hot_rescale temp hot_temp

#set up a basic velocity rescale for the cold region
#fix cold_rescale water temp/rescale 1 ${tlop} ${tlop} 1.0 1.0
#change the thermostat to only act on the "cold region"
#this is done by passing it the "cold temp" compute that we defined above
#fix_modify cold_rescale temp cold_temp

### Ensure MOMENTUM CONSERVATION ###

#ensure that linear momentum is conserved despite the "thermostatting" by velocity rescaling
fix cons_mom all momentum 1 linear 1 1 1


thermo 100
thermo_style custom step pe etotal temp atoms vol press pxx pyy pzz lx ly lz xlo xhi  f_hot_rescale

group ox type 2
6907 atoms in group ox
group hy type 1
13814 atoms in group hy
compute KE all ke/atom
variable TEMP atom c_KE*4186.8/(1.3806488*6.02214129)

compute cc1 all chunk/atom bin/1d x center 2 units box
#fix TPROFILE all ave/chunk 1 500 500 cc1 v_TEMP density/number file temp.dat
fix TPROFILEox ox ave/chunk 1 500 500 cc1 v_TEMP density/number file temp-ox.dat
fix TPROFILEhy hy ave/chunk 1 500 500 cc1 v_TEMP density/number file temp-hy.dat

compute orderparam ox orientorder/atom degrees 1 2 nnn 4 cutoff 3.5
compute cc2 ox chunk/atom bin/1d x center 2 units box
#fix ORDERPARAM all ave/chunk 1 500 500 cc2 c_orderparam[1] file order-param.dat
fix ORDERPARAM all ave/chunk 1 500 500 cc2 c_orderparam[1] file order-param.dat

restart 50000 config.restart

run 500000
PPPM initialization ...
  extracting TIP4P info from pair style
WARNING: Using 12-bit tables for long-range coulomb (../kspace.cpp:316)
  G vector (1/distance) = 0.345599
  grid = 405 48 48
  stencil order = 5
  estimated absolute RMS force accuracy = 0.000405963
  estimated relative force accuracy = 1.22255e-06
  using double precision FFTs
  3d grid and FFT values/proc = 67260 38880
Neighbor list info ...
  2 neighbor list requests
  update every 1 steps, delay 1 steps, check no
  max neighbors/atom: 2000, page size: 100000
  master list distance cutoff = 12.3154
  ghost atom cutoff = 12.3154
  binsize = 6.1577 -> bins = 71 4 4
Memory usage per processor = 12.79 Mbytes
Step PotEng TotEng Temp Atoms Volume Press Pxx Pyy Pzz Lx Ly Lz Xlo Xhi hot_resc 
       0   -103691.88   -94877.055    214.08764    20721    226306.35    82.184872   -198.69421    115.16155    330.08728    435.21976    23.485039    22.140981   0.42772239    435.64748            0 
     100   -103628.24   -94635.909    218.39874    20721    226461.45   -65.479957     -128.872    86.109711   -153.67758    435.36464    23.489176    22.144881   0.35527874    435.71992   -231.28705 
     200   -103609.59   -94585.194    219.17742    20721    226490.72    40.301771    5.6313799    236.16359   -120.88966    435.14636    23.496585    22.151866   0.46441949    435.61078   -288.19167 
     300   -103467.67   -94566.063    216.19533    20721     226387.2   -55.705069    182.48328    113.27578   -462.87427    435.09205     23.49268    22.148185   0.49157341    435.58363   -304.90196 
     400   -103555.86   -94504.249    219.83851    20721    226508.39   -16.973961   -44.311043   -160.13598    153.52514    435.28723    23.493699    22.149145    0.3939869    435.68121   -366.90134 
     500   -103485.19   -94472.017    218.90495    20721    226460.41    30.205535    47.621359    59.520499   -16.525252    435.02523    23.498283    22.153467   0.52498699    435.55021   -404.10263 
     600   -103445.58   -94396.464     219.7778    20721    226516.32   -22.018177    27.900568    85.025908   -178.98101    435.26936    23.494593    22.149988   0.40292124    435.67228   -475.27235 
     700   -103475.53   -94340.105    221.87412    20721    226419.45   -52.038848    36.134061   -33.397839   -158.85277    435.47335    23.484066    22.140063   0.30092634    435.77427   -533.31137 
     800   -103579.28   -94334.075    224.54034    20721    226647.04   -65.664476     26.77998   -80.048699   -143.72471    435.34914    23.499218    22.154348   0.36303199    435.71217   -536.01642 
     900   -103414.21   -94311.943    221.06877    20721    226509.48   -31.016789    194.06108    211.44077   -498.55222    435.41412    23.490332    22.145971   0.33054112    435.74466   -562.65496 
    1000   -103414.67   -94286.534    221.69703    20721    226584.83    85.440065    24.359888    292.81393   -60.853624    435.47841    23.492505    22.148019   0.29839718     435.7768   -591.64812 
    1100   -103330.76   -94213.101    221.44258    20721    226519.33   -76.763236   -145.89289   -113.16445    28.767633    435.18649    23.496985    22.152244   0.44435283    435.63085    -659.4349 
    1200   -103478.88   -94207.811    225.16855    20721    226653.91    71.160671   -58.485863    200.18374    71.784132    435.33902    23.499846    22.154941   0.36808841    435.70711    -673.4735 
    1300   -103385.43   -94171.758    223.77445    20721    226513.15   -38.737649    186.45121   -125.28207   -177.38209    435.44094    23.489799    22.145468   0.31712952    435.75807   -706.50085 
    1400   -103363.89   -94146.807    223.85733    20721    226576.43   -76.343662   -143.93091   -1.6370636   -83.463009    435.22261    23.498972    22.154116    0.4262968     435.6489    -729.0986 
    1500   -103378.11   -94157.003    223.95511    20721    226714.64   -12.750187   -98.493619    135.10647   -74.863414    435.41459    23.500955    22.155986   0.33030582    435.74489   -718.80424 
    1600   -103227.13   -94085.493    222.02485    20721     226672.3    17.710608    70.013205    246.95916   -263.84054    435.37728    23.499767    22.154866    0.3489593    435.72624   -791.96922 
    1700   -103356.99   -94109.177    224.60353    20721    226630.45    5.0867369   -44.664996   -12.786588    72.711795    435.51076    23.493996    22.149426   0.28222146    435.79298   -771.07225 
    1800   -103256.35   -94052.111    223.54536    20721    226596.39   -24.269217   -133.28981    162.58862   -102.10646    435.30232    23.497855    22.153063   0.38643942    435.68876   -828.26897 
    1900   -103231.18   -94078.022     222.3047    20721    226686.58    34.003855    147.17173   -9.8023163   -35.357845    435.32518    23.501914     22.15689    0.3750107    435.70019   -802.60259 
    2000    -103255.1   -94050.167    223.56206    20721    226629.62    65.132967   -78.161362    104.87851    168.68176    435.29992    23.499643    22.154749   0.38764126    435.68756    -834.3645 
    2100   -103254.04   -94042.748    223.71655    20721    226586.18    41.508676   -95.095849    143.19465    76.427232    435.11217    23.502459    22.157404   0.48151256    435.59369   -842.83335 
    2200   -103346.21   -94005.453     226.8609    20721    226726.36   -45.357499    29.613107   -3.6377283   -162.04787    435.31666    23.504206    22.159051   0.37927037    435.69593   -873.31515 
    2300   -103216.14   -93966.467    224.64888    20721    226606.58    70.286827    77.263166   -105.89007    239.48739    435.38008    23.496285    22.151583   0.34756066    435.72764   -921.19137 
    2400   -103264.66   -93936.273    226.56051    20721    226642.17    1.8074607   -41.070046    -16.09504    62.587468    435.41501    23.497187    22.152433   0.33009383    435.74511   -948.64866 
    2500   -103256.93   -93920.736    226.75008    20721    226562.58   -40.420675    34.868196    45.838743   -201.96896    435.35343    23.494723     22.15011   0.36088397    435.71432   -963.36364 
    2600    -103163.7   -93881.639    225.43537    20721    226636.99   -5.5149249   -14.356958    101.32481   -103.51262    435.48788    23.494953    22.150327    0.2936595    435.78154   -1002.7262 
    2700   -103157.35    -93880.66    225.30485    20721    226593.18    29.237278    134.76057   -26.695529   -20.353212    435.19548    23.500573    22.155625   0.43985852    435.63534   -1008.3333 
    2800   -103157.92   -93820.606    226.77734    20721    226576.83    36.308273    5.1335805    131.37546   -27.584224    435.48316    23.491962    22.147507   0.29602165    435.77918   -1070.9623 
    2900   -103107.78   -93812.444    225.75778    20721    226800.09    1.0075323   -62.434688    1.3646421    64.092642    435.46713    23.503965    22.158824   0.30403275    435.77117   -1072.8976 
    3000   -103166.12   -93788.814    227.74855    20721    226756.99    17.499299    69.344421    84.682295   -101.52882    435.46409    23.501814    22.156796   0.30555713    435.76964   -1099.0654 
    3100   -103120.57   -93784.203     226.7544    20721    226647.33    23.630366   -129.08584    113.55818    86.418759    435.65221    23.491057    22.146654   0.21149688     435.8637   -1108.4876 
    3200   -103134.34   -93780.585    227.17676    20721    226695.36   -24.174216   -15.335253    67.444952   -124.63235    435.51549    23.497233    22.152477    0.2798534    435.79535   -1110.1836 
    3300   -103025.12   -93720.478    225.98392    20721     226519.6    54.870372    221.28104   -236.70786    180.03793    435.52378    23.487899    22.143677   0.27570944    435.79949   -1177.9145 
    3400    -102981.9   -93663.536    226.31703    20721    226614.08    10.149539   -253.16295    106.64769    176.96387    435.38959    23.496417    22.151708   0.34280421     435.7324   -1232.9447 
    3500   -103047.66   -93670.883    227.73581    20721    226635.53   -42.644381   -35.154884   -116.79674    24.018485    435.52457    23.493887    22.149323   0.27531267    435.79989    -1224.672 
    3600    -103018.5    -93650.22    227.52951    20721    226714.19    41.275537    69.784509    98.126255   -44.084154    435.36299    23.502324    22.157277    0.3561046     435.7191   -1247.9353 
    3700   -103000.95   -93627.053    227.66585    20721    226601.26    24.033432     127.8561      276.753   -332.50881     435.4512     23.49409    22.149514   0.31200143     435.7632   -1273.4563 
    3800    -103042.9   -93678.541    227.43413    20721     226625.8    -18.01103   -91.644323   -113.45583    151.06706    435.40242    23.496679    22.151954   0.33639068    435.73881   -1221.2847 
    3900   -103047.83   -93649.396    228.26175    20721    226660.39   -74.582161   -49.102098   -62.384988    -112.2594    435.25554    23.502436    22.157382   0.40982978    435.66537   -1247.1233 
    4000   -103038.66   -93615.575     228.8605    20721    226672.03    50.546321    -11.25002    187.31507   -24.426092    435.35516     23.50035    22.155416   0.36001842    435.71518   -1289.6847 
    4100   -103035.08   -93628.898    228.44992    20721    226521.48    52.987507    162.80727     79.30829   -83.153039    435.26901    23.494869    22.150249   0.40309609     435.6721   -1281.3534 
    4200   -102938.51   -93617.145       226.39    20721    226500.33   -19.274433   -95.714285    316.23824   -278.34725    435.45242    23.488824    22.144549   0.31138977    435.76381   -1288.4603 
    4300   -103016.93   -93608.255    228.51055    20721    226535.73    -7.920421   -45.034562   -92.092974    113.36627    435.48619    23.489749    22.145421   0.29450671    435.78069   -1299.9234 
    4400   -102957.58   -93600.246     227.2636    20721    226592.36    -13.15475    105.84038   -207.36739    62.062751    435.33842    23.496671    22.151948   0.36839068    435.70681   -1309.2551 
    4500    -102970.5   -93572.281    228.25655    20721    226488.63    12.873935   -41.600257    -164.3169    244.53896    435.07126    23.498504    22.153676   0.50197215    435.57323   -1342.2904 
    4600    -102914.9   -93570.232    226.95601    20721    226522.97    1.6125104   -10.158371    92.782329   -77.786427    435.22242    23.496204    22.151507   0.42638878    435.64881   -1341.6021 
    4700   -103037.09   -93537.786    230.71169    20721    226796.39   -15.508034   -163.74316   -15.904764    133.12383    435.35728    23.506739    22.161439   0.35895901    435.71624   -1370.9627 
    4800   -102968.57    -93521.31    229.44769    20721    226701.61    51.965716      205.042   -116.55358    67.408724    435.32454     23.50271     22.15764   0.37532865    435.69987   -1392.7336 
    4900   -102938.34   -93516.612    228.82744    20721    226629.32    33.849579    61.193823    317.93188   -277.57697    435.33226    23.498754    22.153911   0.37147113    435.70373   -1397.1565 
    5000   -102919.18    -93498.81    228.79445    20721    226584.76   -70.647307   -81.169207    155.37038   -286.14309    435.31051    23.497031    22.152286   0.38234618    435.69285   -1412.0463 
    5100   -102860.79   -93471.898    228.03014    20721    226705.78      50.2992    47.002438    145.67281   -41.777653    435.24158    23.505166    22.159956   0.41680838    435.65839   -1441.6096 
    5200   -102956.69   -93459.084    230.67031    20721    226480.16   -45.807464   -45.780135   -136.44148    44.799226    435.14228    23.496147    22.151453   0.46646223    435.60874   -1459.3281 
    5300   -102904.72   -93441.058    229.84605    20721    226683.73   -24.976458   -66.456657   -107.28575    98.813031    435.30211    23.502389    22.157338   0.38654666    435.68865   -1473.0108 
    5400   -102884.27   -93432.578    229.55518    20721    226517.53    33.910052    76.680244    18.724916    6.3249969    435.31943    23.493304    22.148772   0.37788256    435.69732   -1490.3464 
    5500   -102887.11   -93434.452    229.57861    20721    226688.99    15.449681   -15.347339   -54.505843    116.20223     435.2412    23.504306    22.159145   0.41699834     435.6582   -1484.5231 
    5600   -102828.38   -93349.453    230.21665    20721    226482.19   -29.462103    24.947343   -136.57309    23.239443    435.05647     23.49857    22.153737   0.50936355    435.56584   -1572.2137 
    5700   -102903.03    -93350.88    231.99517    20721    226483.02    -69.26657    -16.05679    45.569482    -237.3124    435.03714    23.499134     22.15427   0.51902971    435.55617   -1569.3952 
    5800   -102794.06   -93307.091    230.41194    20721    226594.01     67.51036   -12.667315    89.758287    125.44011    435.11008    23.502922     22.15784   0.48255834    435.59264   -1617.5684 
    5900   -102746.87   -93302.004    229.38946    20721    226563.15   -35.484491   -67.609248   -208.47673     169.6325    435.13451    23.500662    22.155709   0.47034487    435.60486   -1619.1601 
    6000   -102706.84   -93243.874    229.82916    20721    226712.67    52.083975   -119.62909   -113.99011    389.87113    435.30634    23.503775    22.158644   0.38443008    435.69077   -1677.1477 
    6100   -102814.11   -93228.693    232.80307    20721    226546.65   -10.106563    99.576169   -88.731044   -41.164815    435.02602    23.502736    22.157665   0.52459242    435.55061   -1696.1746 
    6200   -102757.44   -93180.157    232.60554    20721    226850.71    38.801435    21.555588    202.24927   -107.40055    435.23322    23.512904    22.167251   0.42098831    435.65421   -1738.1529 
    6300   -102757.73   -93129.223     233.8495    20721    226650.68   -60.537018   -10.380787   -94.338318    -76.89195    435.15942    23.504528    22.159354   0.45789118    435.61731   -1791.9939 
    6400   -102702.47    -93122.24    232.67702    20721    226665.83   -44.463529   -60.161651    136.44026    -209.6692    435.13333    23.506018    22.160759   0.47093662    435.60426   -1799.6253 
    6500   -102741.65   -93138.634    233.23058    20721    226661.36    4.4785608   -129.61151    181.75491   -38.707725    435.09389    23.506852    22.161545   0.49065253    435.58455   -1787.4143 
    6600   -102665.03    -93152.83    231.02479    20721    226702.81    24.203671    43.701056    72.926557   -44.016599    435.17135    23.506908    22.161599   0.45192268    435.62328     -1769.88 
    6700    -102661.8   -93113.354    231.90524    20721    226718.63    31.547335    28.919818   -47.256804    112.97899    435.28331    23.504706    22.159522   0.39594738    435.67925   -1811.1044 
    6800    -102670.2   -93085.158    232.79392    20721    226552.48   -4.4870344    10.901277   -71.350636    46.988256    435.02862    23.502968    22.157884   0.52329021    435.55191   -1844.0816 
    6900   -102708.51   -93075.433    233.96065    20721    226743.54   -123.77276   -234.40488   -50.863476   -86.049932    435.15441    23.509478    22.164021    0.4603954     435.6148   -1844.9675 
    7000   -102634.23   -93064.594    232.41968    20721    226739.57    29.694565    35.700154   -106.96285    160.34639    434.99811    23.513495    22.167808   0.53854403    435.53666   -1863.1311 
    7100   -102771.16   -93065.487    235.72372    20721    226830.32   -59.762685   -45.967748   -60.510644   -72.809663    435.33642     23.50906    22.163627   0.36938764    435.70581   -1858.9914 
    7200   -102647.82   -93055.787    232.96375    20721    226805.74   -5.1254405   -134.48337    7.4530473      111.654    435.37881    23.506642    22.161347   0.34819393    435.72701   -1871.2309 
    7300   -102592.93    -93018.97    232.52476    20721    226730.33   -24.254369   -146.94884   -100.95073    175.13645    435.27992    23.505403     22.16018   0.39764112    435.67756   -1910.0677 
    7400   -102660.41   -93047.655    233.46701    20721     226590.4    26.294263    50.089559    -8.967789     37.76102    435.09638    23.503104    22.158012   0.48940769    435.58579   -1888.9148 
    7500   -102600.46    -93016.19    232.77516    20721    226662.56   -70.999126   -27.061987   -131.89943   -54.035957    435.39408    23.498809    22.153963   0.34056076    435.73464   -1913.0412 
    7600   -102540.01   -93020.462    231.20339    20721    226517.12    4.7850434   -145.21167   -140.32181    299.88861    435.20171     23.49646    22.151748   0.43674537    435.63845   -1917.8657 
    7700    -102601.2   -92966.848    233.99161    20721    226800.39   -15.898449    69.325724    104.46615   -221.48722    435.41176    23.505475    22.160247   0.33171784    435.74348   -1965.0042 
    7800   -102475.93       -92966    230.96981    20721    226611.98    10.537355    -94.98871    99.013154     27.58762    435.15201    23.502721    22.157651   0.46159617     435.6136   -1971.7483 
    7900   -102586.36   -92928.775    234.55593    20721    226751.35    84.513273    92.998518   -50.243662    210.78496    435.24165    23.507527    22.162181   0.41677475    435.65843   -2011.7018 
    8000   -102615.19    -92932.62    235.16263    20721     226682.5   -12.708789   -20.234694    60.823595   -78.715266     435.3307    23.501553     22.15655   0.37224938    435.70295   -2007.6123 
    8100   -102512.04   -92957.407    232.05539    20721     226721.3   -28.231178   -159.86019    29.026094    46.140564    435.43575    23.500729    22.155773   0.31972562    435.75547    -1979.647 
    8200   -102515.46   -92884.094      233.919    20721    226898.05    40.786177    144.35422   -296.46612    274.47042    435.28354    23.513998    22.168282   0.39582775    435.67937   -2052.4437 
    8300   -102441.29   -92867.555    232.51944    20721    226533.31    29.654542   -58.355874   -16.726771    164.04627    435.28106    23.495158    22.150521   0.39706872    435.67813   -2079.0828 
    8400   -102509.24   -92902.398    233.32348    20721    226658.76   -32.193018   -209.93869   -4.4127836    117.77242    435.21469    23.503454    22.158342   0.43025678    435.64494   -2038.2685 
    8500   -102503.76   -92897.569    233.30767    20721     226502.2    78.699482    -164.0008    117.97847    282.12078     435.0799    23.498975    22.154119   0.49764779    435.57755   -2055.0474 
    8600   -102512.15   -92880.085    233.93591    20721    226584.59   -36.589398   -278.45734   -136.90124    305.59039    435.04944    23.504071    22.158924   0.51288244    435.56232   -2065.6061 
    8700   -102471.53   -92872.129    233.14266    20721    226632.95    13.336064   -172.39468   -10.886719     223.2896    435.14113    23.504103    22.158953   0.46703694    435.60816    -2077.782 
    8800   -102448.33   -92854.569    233.00572    20721    226463.63   -45.900338    27.393153   -189.46538    24.371212    435.11949    23.495905    22.151225   0.47785272    435.59735   -2097.3786 
    8900   -102451.77   -92856.259     233.0482    20721    226603.08   -65.966521    -75.61996    -56.31268   -65.966924    435.22635    23.500253    22.155324    0.4244239    435.65078    -2090.446 
    9000   -102493.75   -92849.427    234.23363    20721    226449.81    46.638029    6.8217156    108.79454    24.297829     435.0331    23.497521    22.152748   0.52104836    435.55415   -2110.1039 
    9100   -102481.03   -92843.859    234.05999    20721    226630.54     19.11928    169.16383    153.29879   -265.10478    435.15308    23.503655    22.158531   0.46106148    435.61414   -2109.8873 
    9200   -102581.26   -92855.855    236.20298    20721    226519.05   -70.262578   -173.36318   -21.429717   -15.994836    435.05221    23.500597    22.155648   0.51149281    435.56371   -2098.0238 
    9300   -102557.75   -92800.612     236.9736    20721    226560.15   -62.984925    -4.012887   -240.82939    55.887498    434.97857    23.504718    22.159534   0.54831355    435.52689   -2153.2641 
    9400   -102327.55   -92804.346    231.29214    20721    226514.32     28.13762    46.096878    41.111404   -2.7954219    435.08722    23.499406    22.154526   0.49399075    435.58121   -2155.4934 
    9500   -102456.11   -92782.862    234.93628    20721    226484.57    0.4223105   -125.30351  0.061786797    126.50866    434.90404    23.502811    22.157736   0.58558245    435.48962   -2177.0351 
    9600   -102432.58   -92769.931    234.67886    20721    226441.76   -29.767583    75.545629   -56.962574    -107.8858    434.79655    23.503494     22.15838   0.63932507    435.43587   -2191.2172 
    9700   -102481.57   -92783.417    235.54101    20721    226456.24   -84.835836       48.697   -161.98817   -141.21633    434.84824    23.502849    22.157771   0.61347829    435.46172   -2175.7251 
    9800   -102355.38   -92732.668    233.70881    20721    226465.77     15.58779    63.108104   -324.44129    308.09655    434.91059    23.501658    22.156649    0.5823067    435.49289   -2232.4425 
    9900   -102343.05    -92705.99    234.05745    20721    226345.27    52.380075    52.858281     81.47367    22.808274    434.68168    23.501591    22.156585   0.69676119    435.37844   -2263.9879 
   10000   -102326.25   -92676.093    234.37552    20721    226499.79    72.972519    155.50117    128.96312   -65.546726    434.88171    23.504204    22.159049   0.59674276    435.47846   -2292.2861 
   10100   -102333.91   -92683.724    234.37604    20721    226461.81    -49.48276    19.087353   -217.42006    49.884429    434.69502     23.50728    22.161949   0.69009063    435.38511   -2280.4921 
   10200   -102380.42   -92681.451    235.56081    20721    226386.64    26.943771   -34.904536   -282.77538    398.51123    434.75918    23.501644    22.156635   0.65801234    435.41719   -2289.8749 
   10300   -102344.02   -92682.979    234.63966    20721    226342.51   -83.572558   -30.358584   -58.776442   -161.58265    434.84853    23.496938    22.152199    0.6133375    435.46186   -2283.7694 
   10400   -102282.92   -92654.116    233.85683    20721    226492.64   -39.965926   -15.076684   -244.02551    139.20441    434.88853    23.503649    22.158525   0.59333736    435.48186   -2312.0888 
   10500   -102295.99   -92633.641    234.67147    20721    226374.54   -22.022508   -139.39852     105.9466   -32.615607    434.86296    23.498211    22.153399   0.60612011    435.46908   -2338.7817 
   10600   -102285.25   -92613.324    234.90407    20721    226441.67    15.338237    24.282185    268.90999   -247.17746    434.74455    23.504895      22.1597   0.66532316    435.40988   -2359.5559 
   10700   -102106.56   -92583.964    231.27738    20721    226414.16    51.114687    137.30814    121.29797   -105.26205    434.87699    23.499888     22.15498   0.59910386     435.4761   -2390.5821 
   10800   -102227.03   -92586.922    234.13136    20721    226579.14   -16.534399  -0.42294977    4.6933345   -53.873583    434.89325    23.508009    22.162636   0.59097322    435.48423   -2382.5611 
   10900   -102216.68   -92564.125    234.43367    20721    226394.53    84.811365   -11.015874   -45.067765    310.51774    434.53434    23.508132    22.162753   0.77042774    435.30477   -2414.6073 
   11000   -102217.95   -92558.633    234.59799    20721    226449.65    72.314152   -93.399786    41.048215    269.29403     434.7902    23.504075    22.158928   0.64250196     435.4327   -2420.9905 
   11100   -102239.97   -92541.145    235.55746    20721     226149.2   -3.0935308    3.0656825    62.813624   -75.159898    434.70816    23.490694    22.146312   0.68351855    435.39168   -2443.4882 
   11200   -102348.93   -92542.712    238.16579    20721    226229.11   -32.468756   -9.5736289   -38.397717   -49.434922     434.6836    23.495508     22.15085   0.69579877     435.3794   -2442.1397 
   11300   -102266.92   -92528.833    236.51107    20721    226261.05   -1.3131116   -13.709181   -126.08691    135.85676    434.58631    23.499796    22.154893   0.74444585    435.33075   -2454.7986 
   11400    -102153.4   -92508.165    234.25597    20721       226189   -30.440887    19.994873   -73.635222   -37.682312    434.46767    23.499262     22.15439   0.80376273    435.27144   -2476.5854 
   11500   -102295.03   -92505.213     237.7674    20721    226294.36    16.717808    14.128766    187.23947   -151.21481    434.39723     23.50664    22.161345   0.83898544    435.23621   -2479.8815 
   11600   -102188.08    -92491.53    235.50228    20721    226347.85    45.664664    159.89598    124.58566   -147.48765    434.60395    23.503826    22.158693   0.73562363    435.33958   -2494.7735 
   11700   -102108.32    -92441.04    234.79136    20721    226344.15    23.843868    -177.2331    128.94433    119.82037    434.52715    23.505711     22.16047   0.77402729    435.30117   -2543.3722 
   11800    -102193.3   -92432.559    237.06107    20721    226288.83   -17.924855    4.9011575    103.34284   -162.01856    434.31519    23.508573    22.163168   0.88000527    435.19519   -2552.8902 
   11900   -102121.72   -92372.272      236.787    20721    226291.56   -69.380561   -168.00041   -268.20123    228.05996    434.34707    23.507852    22.162488   0.86406687    435.21113   -2610.3787 
   12000   -102145.64   -92382.782    237.11261    20721     226167.5    34.847502   -165.04756   -126.40272    395.99279     434.3992    23.499997    22.155083    0.8379977     435.2372   -2609.5842 
   12100   -102082.44   -92336.938    236.69103    20721    226275.38   -80.753351   -38.953452   -273.44337    70.136774     434.5149    23.502471    22.157415   0.78014856    435.29505   -2649.4409 
   12200    -102026.9   -92352.236    234.97055    20721    226269.23    8.5143145   -6.3218713   -150.41243    182.27724    434.53602    23.501581    22.156576   0.76959043    435.30561   -2637.8905 
   12300   -102117.38   -92353.574    237.13564    20721    226393.52    -16.27028     92.49588   -37.760681   -103.54604    434.39226    23.511924    22.166327   0.84147047    435.23373   -2634.5733 
   12400    -102093.6   -92343.023     236.8144    20721    226278.12    16.406003    10.722308    143.50795   -105.01225    434.43581    23.504753    22.159566   0.81969685     435.2555   -2650.5441 
   12500   -102014.83   -92323.075    235.38575    20721    226417.11    6.2081251    2.2069489       20.705   -4.2875734    434.44855    23.511626    22.166046   0.81332479    435.26188   -2667.8452 
   12600   -102068.49   -92352.233    235.98091    20721    226202.92   -81.438578   -139.70219   -273.72925     169.1157    434.26943    23.505348    22.160128   0.90288389    435.17232   -2641.3305 
   12700   -102151.68   -92363.399    237.73018    20721    226168.43   -8.7914882   -69.113986   -13.837232    56.576753    434.40882    23.499785    22.154883   0.83319041    435.24201   -2635.6496 
   12800   -102163.06   -92359.171    238.10902    20721    226287.22    14.286552   -101.24789    7.7024757    136.40507    434.37272    23.506932    22.161621   0.85124086    435.22396   -2638.0817 
   12900   -102105.97    -92347.38    237.00888    20721    226206.17   -76.938166   -220.56524    165.66456   -175.91382     434.2318    23.506536    22.161247   0.92170176     435.1535   -2648.5107 
   13000      -102080   -92342.235    236.50314    20721     226217.9   -11.441836    187.11766    112.02406   -333.46723    434.46906    23.500726     22.15577   0.80306808    435.27213   -2657.3871 
   13100   -102034.84   -92307.248    236.25617    20721    226157.63   -1.0414123    72.050524    113.42628   -188.60104    434.42894     23.49868    22.153841   0.82312823    435.25207   -2695.0619 
   13200   -102042.98   -92313.046    236.31299    20721    226237.32    23.252968   -3.6270174    178.92888   -105.54296    434.31974    23.505774    22.160529   0.87773094    435.19747   -2690.3701 
   13300    -101982.3       -92303    235.08316    20721    226188.07    10.472671    88.461909    111.33573   -168.37962    434.39047    23.501302    22.156313    0.8423626    435.23284   -2699.4304 
   13400   -102057.26   -92294.214    237.11708    20721    226310.25    8.0879146    116.57007   -5.7120269   -86.594297    434.73919    23.498218    22.153406   0.66800449     435.4072   -2707.3362 
   13500   -102062.12   -92255.058     238.1861    20721    226305.05    34.845857   -33.066405   -280.99025    418.59422     434.5177    23.503937    22.158797   0.77875174    435.29645   -2749.5219 
   13600   -102011.41   -92248.047    237.12483    20721    226325.38   0.88759705   -92.198562     55.32479    39.536563     434.5381     23.50444    22.159272    0.7685501    435.30665   -2753.6394 
   13700   -102032.22   -92226.357    238.15719    20721    226192.59   -19.426324    62.943125     43.27876   -164.50086    434.54336    23.497402    22.152636   0.76592227    435.30928   -2780.5295 
   13800   -101934.62   -92194.089    236.57039    20721    226139.12   -20.776938   -19.938802    182.40481   -224.79682    434.45648    23.496974    22.152232   0.80936214    435.26584   -2813.8378 
   13900    -102017.3   -92186.772    238.75605    20721    226505.56    21.870161    57.334754    -213.5546    221.83032    434.76311    23.507709    22.162353   0.65604496    435.41916   -2815.0629 
   14000   -101921.49   -92198.485    236.14464    20721     226296.3   -37.285261    -161.8489    110.86433   -60.871213    434.71938    23.498029    22.153228   0.67791034    435.39729   -2807.1922 
   14100   -101907.81   -92175.223    236.37751    20721    226550.33    56.656718   0.94614006    166.03398    2.9900382    434.86824     23.50719    22.161864   0.60348077    435.47172   -2828.6919 
   14200   -102006.31   -92190.769     238.3921    20721    226453.46   -31.603341   0.76875342    -5.582178     -89.9966    434.80918     23.50376     22.15863    0.6330119    435.44219    -2812.919 
   14300   -101879.46    -92201.58    235.04877    20721    226407.89    44.708389    68.808639   -19.720127    85.036656    434.78913    23.501937    22.156911   0.64303507    435.43216   -2805.6876 
   14400   -101992.07   -92199.594    237.83194    20721    226402.37   -44.552722    213.71408   -260.21715   -87.155091    434.80757    23.501152    22.156172   0.63381713    435.44138   -2806.4772 
   14500   -102039.61   -92183.982    239.36566    20721    226437.99    22.227675   -83.425118    95.743964    54.364179    434.51764    23.510841    22.165306   0.77878149    435.29642   -2826.3073 
   14600   -102022.13   -92166.143    239.37451    20721    226537.29    21.133128    186.93927    19.895128   -143.43501    434.63109    23.512925    22.167271   0.72205297    435.35315    -2841.702 
   14700   -101944.62   -92180.736    237.13751    20721       226481   -49.524772   -196.80657    356.35242   -308.12017    434.66529     23.50908    22.163645   0.70495714    435.37024   -2824.9774 
   14800   -101905.96   -92158.843    236.73024    20721    226327.99    55.787836    72.675573    104.16581   -9.4778741    434.73154    23.499346    22.154469   0.67182792    435.40337   -2858.5384 
   14900   -101916.72   -92128.713    237.72354    20721     226543.3    5.7890356    10.569742   -133.82523     140.6226    434.46608    23.517702    22.171775   0.80455955    435.27064   -2881.4655 
   15000   -101890.96    -92122.38    237.25163    20721    226381.32      12.1107    95.959068   -11.231687   -48.395282    434.69856    23.503006    22.157919    0.6883206    435.38688   -2893.3938 
   15100   -101797.14   -92097.542    235.57616    20721    226383.14    26.914132   -225.73069    70.645486     235.8276    434.46318    23.509466     22.16401   0.80601107    435.26919   -2917.9169 
   15200   -101962.31    -92114.88     239.1667    20721    226371.61    13.475603    50.907609   -71.899809     61.41901    434.45923    23.508974    22.163546   0.80798326    435.26722   -2903.5045 
   15300    -101880.8    -92099.99    237.54864    20721    226089.46    39.953334    79.020533    153.98607    -113.1466    434.21009    23.501058    22.156083   0.93255571    435.14264   -2927.4835 
   15400    -101855.3   -92064.723    237.78595    20721    226297.31    43.795925    136.75618   -100.83108    95.462672    434.54958    23.502672    22.157605   0.76280826    435.31239   -2957.8359 
   15500   -101845.76   -92077.257    237.24979    20721    226077.61    28.778654     172.0131   -17.406972    -68.27017    434.24965    23.499372    22.154493   0.91277522    435.16242   -2953.8814 
   15600   -101918.45   -92089.176    238.72571    20721     226124.7    6.3994624   -62.753882    62.616335    19.335933    434.28643    23.500824    22.155862    0.8943828    435.18082   -2940.1746 
   15700    -101823.2   -92097.509     236.2099    20721    226122.24   -26.669332   -65.647548    158.41103   -172.77148    434.19124    23.503272     22.15817   0.94198011    435.13322   -2930.9433 
   15800   -101835.79    -92103.03    236.38154    20721    226291.81    92.921148    225.63437   -139.87548    193.00456    434.13574    23.513586    22.167894   0.96973179    435.10547   -2927.7305 
   15900   -101808.31   -92057.226    236.82673    20721    226198.44   -45.636422   -142.50978    234.97984   -229.37932    433.95735    23.513566    22.167875    1.0589252    435.01627   -2970.8796 
   16000   -101864.46   -92049.366    238.38124    20721    226253.34    29.190142   -126.11059    134.86192    78.819099    434.08141    23.513058    22.167397   0.99689362    435.07831   -2982.1893 
   16100   -101924.26   -92049.104    239.83995    20721    226118.36   -81.381086   -52.486389   -232.21972    40.562856    433.66348    23.517367    22.171459    1.2058616    434.86934    -2982.584 
   16200   -101797.37   -92060.822    236.47355    20721    226217.03    12.670566   -58.933678   -11.379649    108.32503    433.94442    23.514882    22.169116    1.0653898    435.00981   -2974.0968 
   16300   -101932.82   -92031.312    240.48001    20721    226021.37   -45.403017   0.68654131   -287.15813    150.26254    433.70109    23.511304    22.165742    1.1870575    434.88814   -3007.9918 
   16400   -101842.36   -92041.498    238.03555    20721     226296.3    48.355047    211.54299    -27.72059   -38.757258    433.92993    23.519394     22.17337     1.072634    435.00257   -2995.2778 
   16500   -101883.63   -92007.465    239.86464    20721    226218.64    -26.57717   -86.600023   -6.7170038    13.585517    434.01615    23.513023    22.167363    1.0295236    435.04568   -3027.8311 
   16600   -101826.71   -91986.365    238.99468    20721    226085.27   -26.935203   -70.556998    153.95748   -164.20609    433.84552    23.510713    22.165185    1.1148393    434.96036   -3054.9954 
   16700   -101808.65   -92004.935    238.10487    20721    226100.03   -46.665121   -161.85172    176.28971   -154.43335    433.89823    23.510052    22.164562    1.0884859    434.98671   -3035.2731 
   16800   -101703.25    -91993.08    235.83302    20721    226102.69    82.493781   -67.296575    109.02217    205.75575    433.74039    23.514468    22.168725    1.1674067    434.90779   -3052.9749 
   16900   -101750.68   -91954.085      237.932    20721    225896.03   -3.1467746   -81.163766   -326.75963    398.48307     433.7147    23.504415    22.159248      1.18025    434.89495   -3096.5374 
   17000   -101851.74    -92008.73    239.05921    20721    226048.17   -54.072426   -43.773064    117.32807   -235.77228    433.52757    23.517402    22.171492    1.2738129    434.80139   -3036.4347 
   17100   -101746.45   -91971.893    237.39663    20721    225991.15   -69.802294   -13.527429   -286.47344    90.593991    433.63428    23.511543    22.165968    1.2204618    434.85474   -3074.7204 
   17200   -101876.29   -91969.875    240.59922    20721     225997.3    42.901444    1.3151409    42.773474    84.615718     433.7331    23.509184    22.163744    1.1710477    434.90415   -3084.8047 
   17300   -101695.86    -91949.21    236.71904    20721    226134.72    1.4624196    127.67415    220.24316   -343.53006     433.8374    23.513503    22.167816    1.1188999     434.9563   -3097.4642 
   17400   -101703.59   -91929.292    237.39039    20721    226014.44     37.03224   -33.509547    128.04305    16.563219    433.48831    23.516713    22.170842    1.2934474    434.78175    -3125.078 
   17500   -101744.04    -91971.51    237.34749    20721    225879.45   -14.173616    33.324637     166.1288   -241.97428     433.4714    23.510147    22.164652    1.3019022     434.7733   -3086.0319 
   17600   -101831.62   -91980.518     239.2558    20721     225804.6    3.6349388    -68.41664    26.191351    53.130106    433.44345     23.50701    22.161694    1.3158737    434.75933   -3080.6638 
   17700   -101761.46   -91993.077    237.24672    20721     225744.8    48.386277    -27.71587    -104.4617     277.3364    433.51362    23.501994    22.156966    1.2807908    434.79441   -3073.7206 
   17800   -101792.78   -91937.437    239.35883    20721    225795.35   -37.757648   -117.50436   -157.23235    161.46377    433.15465    23.514363    22.168627    1.4602746    434.61493   -3125.0505 
   17900   -101828.18   -91923.016    240.56887    20721    225809.07   -25.792898    91.172751    192.18472   -360.73616    433.46327    23.506704    22.161406    1.3059626    434.76924    -3141.449 
   18000   -101829.04   -91917.093    240.73357    20721    225714.14   -92.729725    45.439626    112.16582   -435.79462    433.14747    23.510329    22.164823    1.4638631    434.61134   -3147.4466 
   18100   -101726.56   -91909.152    238.43755    20721    225649.81    89.360682    25.248182   -152.07174    394.90561    433.30493    23.502707    22.157637    1.3851348    434.69007   -3167.6425 
   18200   -101793.44   -91906.176    240.13414    20721    225842.81   -76.974803   -6.6542181   -411.05795    186.78776    433.54357    23.506284     22.16101    1.2658171    434.80938   -3159.9298 
   18300   -101705.01   -91881.972    238.57418    20721    225728.83   -53.594127   -135.98817   -13.795439   -10.998772    433.40598    23.504081    22.158933    1.3346099    434.74059   -3189.3199 
   18400   -101767.29   -91874.993    240.25643    20721    225844.98   -4.0864815   -15.607238    116.81506   -113.46726    433.62809    23.504106    22.158956    1.2235548    434.85165   -3198.2503 
   18500   -101701.54   -91841.752    239.46669    20721    225917.63   -105.76061   -84.582681    23.429278   -256.12844    433.47517    23.512032    22.166429    1.3000134    434.77519   -3222.6052 
   18600   -101674.04   -91812.887    239.49986    20721    225843.27    39.561743    122.86328   -70.510123    66.332072     433.5933     23.50496    22.159761    1.2409504    434.83425   -3262.4784 
   18700   -101650.44   -91787.321    239.54772    20721    225638.59    21.933443    131.91396   -31.645821   -34.467816    433.21284    23.504621    22.159442    1.4311787    434.64402   -3293.7703 
   18800   -101535.64   -91737.217    237.97643    20721    225869.67   -60.638072   -69.898394   -47.105823       -64.91    433.55076    23.507487    22.162144     1.262218    434.81298   -3333.8084 
   18900   -101616.07   -91711.642    240.55088    20721    225821.72    12.570344    17.985469   -36.947453    56.673017    433.25441    23.513029    22.167369    1.4103963     434.6648   -3367.9912 
   19000   -101634.86   -91713.421     240.9641    20721    225820.05    20.943041   -12.331752    55.615312    19.545564    433.38939     23.50928    22.163835    1.3429069    434.73229   -3366.9117 
   19100   -101617.82   -91705.309    240.74734    20721    225801.17    52.832592   -12.219764    177.57201   -6.8544705     433.5661    23.503506    22.158391    1.2545483    434.82065   -3377.9298 
   19200   -101479.28   -91687.393    237.81775    20721    225620.65   -27.066185   -45.678044    152.18777   -187.70828     433.2778    23.501924      22.1569    1.3986998     434.6765   -3397.1172 
   19300   -101573.34   -91701.804    239.75214    20721     225745.5    77.662565    150.05618   -48.649945    131.58146    433.24662    23.509272    22.163827     1.414288    434.66091   -3386.1652 
   19400   -101582.98   -91696.988    240.10329    20721    225799.37   -1.0956162    173.33783    13.457342   -190.08202    433.55526    23.503706     22.15858    1.2599709    434.81523   -3387.4291 
   19500   -101585.42   -91686.728    240.41158    20721    225944.36   -8.2125944   -196.56863     301.2337   -129.30285    433.58731    23.510382    22.164873    1.2439448    434.83126   -3393.7978 
   19600   -101589.25   -91632.707    241.81665    20721    225899.25   -18.368515    160.77837   -235.17892    19.295009    433.44249    23.511962    22.166363    1.3163553    434.75884   -3450.3775 
   19700    -101594.9   -91654.084     241.4348    20721    225703.76   -78.142744    -151.6424    51.794992   -134.58083    433.37292    23.503673    22.158548    1.3511388    434.72406   -3431.7429 
   19800   -101578.68   -91624.952     241.7484    20721    225889.43   -40.804686    3.8458037   -49.518202    -76.74166    433.57094    23.507968    22.162597    1.2521312    434.82307    -3459.155 
   19900    -101620.4   -91620.202    242.87695    20721    225855.73   -113.70493   -93.239183   -98.453799    -149.4218    433.59123    23.505664    22.160425    1.2419831    434.83322   -3461.7127 
   20000   -101652.24   -91697.988    241.76109    20721    225770.14    92.148543    -45.52713    18.245543    303.72722    433.28746    23.509447    22.163992    1.3938692    434.68133   -3396.4143 
   20100   -101557.25   -91641.611    240.82323    20721    225873.43    0.2790039    65.647525    87.300066   -152.11058    433.59588    23.506459    22.161175    1.2396606    434.83554   -3447.4221 
   20200   -101552.97   -91636.791    240.83646    20721    225851.41    20.363653    155.59624   -302.16977    207.66449    433.84418    23.498586    22.153753    1.1155101    434.95969   -3456.7808 
   20300   -101617.78   -91651.049    242.06399    20721    226037.38    12.445349   -91.578107    202.58518   -73.671024    433.89862    23.506784    22.161481    1.0882919    434.98691   -3436.2129 
   20400   -101526.42   -91631.995     240.3079    20721    225789.28   -35.197653   -199.19331    1.6076649    91.992685    433.74598    23.498013    22.153212    1.1646077    434.91059   -3460.2237 
   20500   -101607.11   -91601.048    243.01937    20721    226119.84   -6.5611562   -114.83117   -63.089866    158.23756    434.16984    23.503726    22.158599   0.95267893    435.12252   -3485.8844 
   20600   -101534.06   -91637.069    240.37028    20721     225877.3   -13.531149    5.3892179   -58.501421    12.518757    434.08496    23.493415    22.148877   0.99512007    435.08008   -3456.7665 
   20700   -101549.34   -91595.794    241.74387    20721    226212.64     73.42819    142.69792    93.568199   -15.981553    434.14864    23.509123    22.163686   0.96327754    435.11192   -3493.9213 
   20800   -101514.06   -91598.892    240.81191    20721    226047.57   -44.609675    137.88148   -202.88075   -68.829757      433.888    23.507601    22.162252    1.0935993     434.9816   -3490.9131 
   20900   -101482.48   -91603.186    239.94045    20721    226061.27    89.653785    183.14456    65.162968    20.653824    434.01396    23.504902    22.159707    1.0306197    435.04458   -3496.5876 
   21000   -101506.29    -91595.75    240.69932    20721    226134.39   -51.262441   -59.782877    50.884331   -144.88878    434.00461    23.508956    22.163529    1.0352935    435.03991   -3495.6834 
   21100   -101543.19   -91523.024    243.36192    20721    226009.62    72.620566    43.540304    229.34922   -55.027824    433.92189     23.50471    22.159526    1.0766549    434.99855   -3578.4539 
   21200   -101486.48   -91526.559    241.89871    20721    225936.18    97.498867    239.00822    82.485121   -28.996739    434.07122    23.496848    22.152114    1.0019888    435.07321   -3580.1523 
   21300   -101520.33   -91525.386    242.74945    20721    225892.38    17.451082    102.22417   -385.51467    335.64375     433.9332    23.498306    22.153489    1.0710012     435.0042   -3579.5289 
   21400   -101448.51   -91487.673    241.92094    20721    226009.16    52.312093   -85.664199    137.02808    105.57239    434.19705    23.497237    22.152481   0.93907651    435.13612   -3616.1757 
   21500   -101452.53   -91497.053    241.79086    20721    225736.47    75.826212    215.98453    160.95096   -149.45686    433.68754    23.496848    22.152114    1.1938301    434.88137   -3617.5826 
   21600   -101548.47   -91511.485    243.77051    20721     226056.1    23.680951    168.60903    40.430792   -137.99697    433.99628    23.505112    22.159905    1.0394576    435.03574   -3593.8013 
   21700   -101461.22    -91514.62    241.57517    20721    225855.14    44.893853   -34.264788   -33.001154     201.9475    433.85263    23.498551     22.15372     1.111286    434.96391   -3595.9783 
   21800   -101506.47   -91500.354    243.02073    20721    225855.23   -23.919807   -71.907336    261.69912    -261.5512    433.73313    23.501793    22.156776     1.171034    434.90417   -3606.8807 
   21900   -101425.25    -91463.73    241.93762    20721    225838.05   -108.66931   -79.109748   -131.01764   -115.88054    433.54122      23.5061    22.160836    1.2669889    434.80821   -3641.3653 
   22000   -101461.31    -91449.49    243.15925    20721    225968.06     24.90927     13.65471   -28.986139    90.059238    433.85059     23.50448    22.159309    1.1123073    434.96289   -3659.7254 
   22100   -101465.33   -91472.207    242.70522    20721    225937.61    8.5796829   -95.553273   -117.79071    239.08303    433.71922    23.506455    22.161171    1.1779878    434.89721   -3633.7357 
   22200   -101523.43   -91464.938    244.29262    20721    225915.77    -51.71478   -3.6911583    8.0732968   -159.52648    433.75137    23.504448    22.159279     1.161917    434.91328   -3644.2534 
   22300   -101534.25   -91484.565    244.07888    20721    225925.48   -21.820435    146.80928   -41.542338   -170.72824    433.89669    23.501017    22.156044    1.0892574    434.98594   -3626.2609 
   22400   -101405.55   -91472.589    241.24397    20721    225773.48     94.57538    209.17794    227.80016   -153.25196    433.87288    23.493755    22.149198    1.1011597    434.97404   -3647.0118 
   22500   -101423.07   -91454.457    242.10987    20721    225994.96   -48.501568   -100.89624   -10.043004   -34.565459     433.9157    23.504115    22.158965    1.0797496    434.99545   -3652.9566 
   22600   -101453.37   -91410.001     243.9255    20721    226151.54   -92.692611   -24.530775   -222.46186   -31.085196     433.9665     23.51088    22.165343    1.0543507    435.02085   -3692.3327 
   22700   -101428.73   -91408.721    243.35798    20721    226073.29   -19.702417     132.6924    119.60171   -311.40136    434.09238    23.503404    22.158295   0.99141042    435.08379   -3701.4306 
   22800    -101349.3   -91415.193    241.27181    20721    226067.07    41.394533    121.54792     -64.5984    67.234077    434.10074    23.502854    22.157776   0.98722813    435.08797   -3697.8656 
   22900   -101438.42   -91442.982    242.76127    20721    226143.54    15.099387   -155.12701    122.81918     77.60599    434.32069    23.500876    22.155911   0.87725726    435.19794   -3669.7431 
   23000   -101426.59    -91392.69    243.69548    20721     226047.4   -54.424961   -95.195325   -78.982684    10.903127    433.81133     23.50967    22.164202    1.1319354    434.94326   -3719.9043 
   23100   -101395.12   -91401.401    242.71962    20721     225806.5   -9.5964216   -68.575792   -116.79077     156.5773    433.61885    23.502354    22.157305    1.2281739    434.84703   -3721.4296 
   23200   -101421.29   -91404.236    243.28637    20721    226007.76   -52.598059     47.74597   -159.13058   -46.409563    433.90488    23.505074    22.159869    1.0851581    434.99004   -3711.2855 
   23300    -101396.3   -91411.312     242.5076    20721    225908.66   -66.173879    -84.76719   -34.569238    -79.18521    433.70197    23.505417    22.160192    1.1866131    434.88859    -3709.038 
   23400   -101442.14   -91394.724    244.02377    20721    225707.29   -48.717014   -48.435959   -352.77097    255.05588    433.58144    23.498204    22.153392    1.2468815    434.82832   -3730.1616 
   23500   -101367.72   -91325.765    243.89105    20721    225817.41   -44.996841   -86.586845   -118.52749    70.123807    433.81979    23.497478    22.152708    1.1277055    434.94749   -3797.7281 
   23600   -101388.46   -91342.992    243.97649    20721    225759.29    83.989981   -71.107791    202.56803    120.50971    433.53595    23.502143    22.157106     1.269625    434.80558   -3792.6155 
   23700    -101340.4   -91333.766    243.03328    20721    225728.05   -21.997126    141.12207   -179.00462   -28.108833    433.24441    23.508423    22.163027    1.4153972     434.6598   -3796.5991 
   23800   -101357.81   -91343.119    243.22905    20721    225784.27   -44.505932   -101.76344   -179.24481    147.49045    433.43046    23.506304    22.161028    1.3223691    434.75283   -3785.2281 
   23900   -101434.46   -91361.386    244.64701    20721    225817.41   -131.59199   -144.76403    64.750389   -314.76233    433.72595     23.50002    22.155104    1.1746268    434.90057   -3764.6747 
   24000   -101361.09     -91372.6    242.59251    20721     225672.4    138.75417    105.79177   -74.931532    385.40228    433.47134    23.499371    22.154493    1.3019308    434.77327   -3771.4351 
   24100   -101364.14   -91372.682     242.6647    20721    225711.46    17.463676    49.662672   -118.74568    121.47404    433.31596    23.505618    22.160382    1.3796208    434.69558   -3766.7121 
   24200   -101404.95   -91301.307     245.3893    20721    225852.11   -119.28482   -106.34853   -317.19636    65.690418    433.43717    23.509653    22.164186    1.3190171    434.75618   -3828.3697 
   24300   -101292.57   -91346.493    241.56238    20721    225535.13    -18.21167   -140.58662   -131.17822    217.12983    433.28797    23.497194     22.15244     1.393616    434.68158   -3796.1378 
   24400   -101433.65   -91318.782    245.66185    20721    225857.01   -59.442095    27.295818    69.770997    -275.3931    433.29879    23.513662    22.167965     1.388205    434.68699   -3815.4787 
   24500   -101345.72   -91333.427     243.1706    20721    225614.67    37.030902    -24.37185    235.17914   -99.714586    433.18843    23.504037    22.158891    1.4433849    434.63182   -3812.4527 
   24600   -101364.55    -91293.37    244.60093    20721    225744.19    0.8725201     55.21527    34.881974   -87.479684    433.31297    23.507403    22.162065    1.3811137    434.69409   -3850.7523 
   24700   -101318.18   -91249.103     244.5499    20721     225730.6   -13.019732     107.7418   -69.068023   -77.732973    433.22854    23.508987    22.163558     1.423329    434.65187   -3896.0594 
   24800   -101324.19   -91253.179    244.59673    20721    225525.79   -46.554477    132.64031   -128.45547   -143.84827    433.07045    23.502607    22.157544    1.5023755    434.57282   -3897.2823 
   24900    -101237.2   -91233.286    242.96723    20721    225826.35   -23.934128   -97.437235    139.38253   -113.74768    433.22504    23.514067    22.168347    1.4250809    434.65012   -3909.4878 
   25000   -101283.02   -91244.641    243.80423    20721     225508.7   -70.621584   -48.828427   -226.91308     63.87676    432.95185    23.504935    22.159739    1.5616759    434.51352   -3905.3241 
   25100   -101354.49   -91304.493    244.08648    20721    225524.33    4.2753383    294.85681   -360.59698    78.566181    432.94504    23.505935    22.160681    1.5650812    434.51012   -3850.3475 
   25200   -101229.25   -91220.543     243.0837    20721    225493.03    76.065534    59.074641    59.223592    109.89837    433.12444    23.499436    22.154554    1.4753812    434.59982   -3940.3268 
   25300   -101328.98   -91241.031    245.00825    20721     225552.8    3.3377887   -12.183292   -2.3757522     24.57241    432.95619    23.507116    22.161794    1.5595059    434.51569   -3917.2014 
   25400   -101303.63   -91266.269    243.77954    20721    225648.14    26.153092   -49.501851    16.413369    111.54776    432.84463    23.515113    22.169334    1.6152871    434.45991   -3890.6224 
   25500   -101275.64   -91226.285    244.07076    20721    225579.55   -87.418219   -85.471582   -91.192474   -85.590601    432.72613    23.514758    22.168999    1.6745343    434.40067   -3927.6205 
   25600   -101320.54   -91217.538    245.37382    20721    225548.98    4.3091075    56.197757    219.31609   -262.58652    432.58578    23.516979    22.171093     1.744712    434.33049   -3942.1229 
   25700   -101257.59   -91233.672      243.453    20721    225549.73    73.175673    136.27542    123.40705   -40.155451    432.79469    23.511341    22.165778    1.6402537    434.43495   -3930.8028 
   25800   -101186.07   -91181.102    242.99268    20721    225606.64    45.450033    51.148662    214.08531   -128.88387    432.89125    23.511685    22.166101     1.591976    434.48322   -3981.5731 
   25900   -101190.03    -91199.89    242.63272    20721    225464.68    78.598235    144.00412    93.977591   -2.1870079    432.88889     23.50435    22.159187    1.5931545    434.48205   -3968.4782 
   26000   -101228.97   -91204.842    243.45812    20721    225738.71    16.577148   -130.47255    74.248554    105.95544    433.06789    23.513769    22.168066    1.5036542    434.57155   -3954.7108 
   26100   -101247.71   -91193.731    244.18319    20721    225726.54       30.855    186.88558   -108.24626    13.925676    432.90426    23.517578    22.171658    1.5854712    434.48973   -3967.8114 
   26200   -101175.41   -91199.818    242.27924    20721    225853.71   -3.8078815    197.55703     39.83772    -248.8184    433.14523    23.517657    22.171732    1.4649846    434.61022   -3958.2295 
   26300   -101307.04   -91180.842    245.93712    20721    225789.84    41.385141    -17.04765     9.746436    131.45664     433.3725    23.508166    22.162784    1.3513478    434.72385   -3982.9987 
   26400   -101194.58   -91169.629    243.47805    20721    225767.99   -16.917003    218.14374    12.480409   -281.37516    433.25089    23.510327    22.164821    1.4121555    434.66304   -3993.3935 
   26500   -101189.77   -91098.627    245.08582    20721    225911.41    83.818092   -123.50245    39.838998    335.11773    433.46978    23.511854    22.166262    1.3027089    434.77249   -4064.3522 
   26600   -101217.61   -91138.584    244.79146    20721    225865.85    55.518131    129.11974    131.72877   -94.294115    433.38649    23.511743    22.166156    1.3443553    434.73084   -4027.6975 
   26700   -101167.84   -91124.968    243.91329    20721    225789.54   -1.3227185    102.03752    232.49704   -338.50271     433.5899    23.502256    22.157212     1.242651    434.83255   -4040.9645 
   26800   -101168.38   -91125.014    243.92546    20721    225792.79   -25.446804    -28.87561   -156.82553    109.36073    433.44759    23.506283    22.161009    1.3138065    434.76139   -4040.6355 
   26900   -101200.68   -91096.178    245.41027    20721    225787.05    20.031223    50.101513    37.490697   -27.498539     433.3736     23.50799    22.162619    1.3507991     434.7244   -4072.2673 
   27000   -101194.37   -91091.449    245.37188    20721    225582.24    58.496811    14.853323   -191.08874    351.72585    433.28673    23.499681    22.154785    1.3942354    434.68096   -4084.4246 
   27100   -101199.55    -91073.28    245.93894    20721    225824.04    -14.90802    -7.059248   -227.29063    189.62582    433.21888    23.514114    22.168392    1.4281621    434.64704   -4092.1046 
   27200   -101183.17    -91090.95    245.11186    20721    225680.55   -65.034341   -19.566508     99.17587   -274.71239    433.31931    23.503918    22.158779    1.3779459    434.69725   -4079.6601 
   27300   -101137.42   -91113.103    243.46271    20721    225609.07    10.847474   -245.74075    256.43321    21.849964    433.16802    23.504299    22.159139    1.4535919    434.62161   -4063.1532 
   27400   -101125.53   -91128.936    242.78945    20721     225783.9   0.68098294   -20.623302   -65.221347    87.887598    433.03858    23.516918    22.171035    1.5183093    434.55689   -4042.3163 
   27500   -101154.11   -91124.331    243.59542    20721     225696.5    35.213628   -20.575573    139.70459   -13.488132    433.04017    23.512323    22.166703    1.5175143    434.55769   -4053.4059 
   27600   -101129.34   -91099.252     243.6029    20721    225598.25    56.057264   -21.059869    256.23527   -67.003609    432.95622    23.509483    22.164026    1.5594886    434.51571   -4083.7906 
   27700   -101222.46   -91133.167    245.04082    20721    225712.39    118.90703    225.65013      182.434   -51.363037    432.99422    23.514398     22.16866    1.5404902    434.53471   -4052.1312 
   27800   -101211.29   -91097.338    245.63978    20721    225799.12    5.3630481    11.934002   -87.738086    91.893228    432.99938    23.518775    22.172786    1.5379116    434.53729   -4081.1426 
   27900   -101179.99   -91108.298    244.61326    20721    225762.43   -63.899263   -30.222178   -98.948201    -62.52741    432.99047    23.517106    22.171213    1.5423644    434.53284   -4066.9021 
   28000   -101274.28   -91113.094      246.787    20721    225749.98    4.9632581   -74.426599    204.79949   -115.48312    432.99599    23.516308     22.17046     1.539607    434.53559   -4067.0055 
   28100   -101168.04   -91117.252     244.1056    20721    225646.55   -72.218123   -41.793992   -7.0628418   -167.79753    433.26112    23.503725    22.158598    1.4070383    434.66816   -4063.6123 
   28200   -101177.99   -91045.225    246.09666    20721    225718.23    3.5422593    66.533283    20.760382   -76.666887    433.31881    23.505893    22.160642    1.3781956      434.697   -4138.7449 
   28300   -101202.19   -91069.052    246.10577    20721    225567.31   -44.581695    -133.2551     310.5597   -311.04969    433.12393    23.503319    22.158215    1.4756354    434.59956   -4117.9011 
   28400    -101240.3   -91105.019    246.15776    20721    225707.07    36.089771    156.14102    198.29063   -246.16233    433.28072    23.506346    22.161068    1.3972403    434.67796   -4083.6369 
   28500   -101142.76   -91089.686    244.16112    20721    225614.38    11.866659    57.251832   -87.750349    66.098495    433.28102     23.50151     22.15651    1.3970903    434.67811    -4098.905 
   28600   -101185.77   -91062.337       245.87    20721    225684.82    40.830634    32.130048   -103.40799    193.76985    433.24537    23.506146     22.16088    1.4149134    434.66029   -4128.3806 
   28700   -101083.93   -91004.535    244.80033    20721    225697.05   -48.056894   -34.039349    214.36101   -324.49234    433.26402    23.506277    22.161003    1.4055918    434.66961   -4182.1723 
   28800   -101145.13   -91017.516    245.97162    20721    225804.05    14.749031    132.72848    57.405258   -145.88665    433.25286    23.512151    22.166541    1.4111724    434.66403   -4171.0721 
   28900   -101137.37   -91025.327    245.59328    20721     225723.8    62.198713    197.73256    10.595086   -21.731508    433.37832     23.50457    22.159394    1.3484403    434.72676    -4169.624 
   29000   -101078.63   -91012.074     244.4885    20721    225667.76    33.455971    62.235118   -329.63958    367.77237     433.1905    23.506746    22.161446    1.4423506    434.63285   -4182.0943 
   29100   -101292.71   -91020.719    249.47791    20721    225986.63    6.3361986    131.07191    50.834611   -162.89793    433.40125    23.517628    22.171704    1.3369765    434.73822   -4168.4004 
   29200    -101120.1    -90980.06    246.27338    20721    225623.87    18.602105    35.130616    100.24872   -79.573019    433.03591    23.508655    22.163245    1.5196468    434.55555    -4218.598 
   29300   -101028.06   -90942.833    244.94215    20721    225776.73    15.847429    50.042002    -94.24008    91.740365    433.25352    23.510711    22.165183    1.4108422    434.66436   -4251.5216 
   29400   -101115.79   -90971.495    246.37676    20721    225841.02    19.707342    170.95495    89.574123   -201.40705    433.55699    23.505827    22.160579    1.2591042     434.8161   -4222.9382 
   29500   -101104.09   -90968.717    246.15989    20721    225807.26   -35.314211     91.60156   -154.95243   -42.591764    433.43222    23.507453    22.162112    1.3214921    434.75371   -4223.3305 
   29600   -101138.32   -90981.294    246.68581    20721     226012.7   -18.555578   -104.92261    75.095814   -25.839941    433.47951    23.516861    22.170981    1.2978466    434.77735   -4206.8929 
   29700   -101149.92   -91014.196    246.16852    20721    225861.79    -11.93646    215.29009   -332.91084    81.811369     433.3511    23.512491    22.166862     1.362051    434.71315   -4179.7177 
   29800   -101084.06   -90973.485    245.55761    20721    225925.66    1.9170171   -155.16056    48.456118     112.4555    433.56529    23.510006    22.164519    1.2549533    434.82025   -4221.0004 
   29900    -101067.7   -90924.605     246.3474    20721    225727.42    -84.45476   -73.694649   -75.180542   -104.48909    433.37529     23.50484    22.159649    1.3499542    434.72525   -4271.2391 
   30000   -101017.15   -90926.427    245.07552    20721    225836.63   -55.093254    -146.6823   -63.424915     44.82745    433.57768    23.505038    22.159835    1.2487584    434.82644    -4268.968 
   30100   -101116.72   -90954.075     246.8222    20721    225729.48   -21.541844   -20.775918   -88.304853     44.45524    433.34811    23.505684    22.160445    1.3635454    434.71165   -4247.4887 
   30200   -101124.88   -90977.026    246.46305    20721    225805.86    39.147012    37.636299    72.406351    7.3983846    433.62663    23.502109    22.157074    1.2242848    434.85092    -4228.156 
   30300   -101125.55    -90977.82    246.46004    20721    225886.24    35.597103    129.47132    -56.06998    33.389966    433.46434    23.510692    22.165166    1.3054306    434.76977   -4226.8854 
   30400   -101028.68   -90977.083    244.12535    20721    226012.06     25.69161    299.87595   -136.52969   -86.271428    433.50773    23.516062    22.170229    1.2837358    434.79146   -4224.2868 
   30500    -101032.9   -90927.972    245.42054    20721    225800.26   -12.405271    53.662539   -70.507888   -20.370462    433.31842    23.510175    22.164678     1.378389    434.69681    -4276.842 
   30600   -101102.04    -90935.34    246.92076    20721    225927.35    115.83449    151.27926    316.87871    -120.6545    433.53311    23.510967    22.165425    1.2710451    434.80415   -4274.0221 
   30700   -101020.99   -90906.383    245.65559    20721    225633.62   -54.328965    77.726987   -292.95238    52.238494    433.55967    23.494959    22.150333     1.257763    434.81744   -4305.4005 
   30800   -101042.66   -90857.281    247.37448    20721    226080.96     31.46598    73.974712   -243.13664    263.55987    433.71656    23.513983    22.168269    1.1793182    434.89588   -4345.8916 
   30900   -101046.68   -90848.046    247.69635    20721    226059.06   -85.914039   -147.73337   -6.4638218   -103.54493    433.73573    23.512325    22.166705    1.1697335    434.90547    -4352.066 
   31000   -101028.99   -90861.336    246.94399    20721    225682.01    23.829564     19.93145   -122.44181    173.99905     433.5405    23.497997    22.153197    1.2673519    434.80785   -4355.8036 
   31100   -101087.04    -90846.26    248.72002    20721    225834.77   -6.2043992    -89.97894    124.14345   -52.777703    433.39867    23.509794    22.164319    1.3382672    434.73693   -4366.1054 
   31200   -100980.11     -90786.4    247.57677    20721    225774.35   -49.183053   -222.65926   -12.577408    87.687507    433.12124    23.514177    22.168451    1.4769819    434.59822   -4425.4414 
   31300    -101036.2    -90825.21    247.99658    20721    225870.57   -21.869391    93.125814   -66.726731   -92.007256    433.60378    23.506096    22.160833    1.2357083    434.83949   -4389.0374 
   31400   -101060.37   -90832.988    248.39466    20721    225925.64    44.939379    114.29466   -110.70917    131.23265    433.42877    23.513707    22.168009    1.3232145    434.75199   -4384.8641 
   31500   -100995.26   -90837.567    246.70216    20721    225763.08    43.973679    2.4123115    2.6125301     126.8962    433.36922    23.506861    22.161554    1.3529875    434.72221   -4383.3543 
   31600   -100993.78   -90806.445    247.42189    20721    225952.27     -103.093   -86.546396   -65.597871   -157.13473    433.23009    23.520485    22.174398    1.4225532    434.65265   -4403.0652 
   31700   -100971.66   -90836.625     246.1518    20721    225885.83    36.339578   -170.74287    184.05511    95.706501    433.27324    23.515855    22.170033    1.4009796    434.67422    -4383.598 
   31800   -101004.03   -90804.766    247.71162    20721    225751.31   -58.257381     153.3376   -165.81265   -162.29709     433.1656    23.511773    22.166185    1.4548024     434.6204   -4416.7747 
   31900   -100975.16   -90773.362    247.77329    20721    225870.56   -6.1679381    24.833586    77.756099    -121.0935    433.38386    23.512059    22.166454    1.3456695    434.72953   -4446.0889 
   32000    -100892.3   -90722.446    246.99746    20721     225772.8    78.524269     102.9039    27.513303     105.1556    433.28155    23.509745    22.164273     1.396826    434.67837   -4506.2186 
   32100   -100883.23   -90723.195    246.75889    20721    225857.65   -9.7017648   -99.557563   -115.30858    185.76085    433.22111    23.515803    22.169984    1.4270458    434.64815   -4498.8866 
   32200    -100914.8   -90726.527    247.44488    20721    225856.54   -39.281743    7.0387973   -1.5891927   -123.29484    433.28717    23.513952    22.168239    1.3940126    434.68119    -4494.694 
   32300   -100961.83   -90679.259    249.73505    20721    225942.93    19.976159    48.300257    56.458254   -44.830034    433.26296    23.519106    22.173099    1.4061203    434.66908   -4544.9316 
   32400   -100866.63   -90670.344    247.63949    20721    225847.57    62.901832   -84.531148    373.48572   -100.24907    433.45307    23.508985    22.163556     1.311063    434.76414   -4557.7985 
   32500   -100863.38   -90662.631    247.74776    20721    225995.93    31.098084   -61.421259   -75.626958    230.34247    433.34976    23.519508    22.173477    1.3627177    434.71248   -4562.1776 
   32600   -100837.44   -90671.874    246.89325    20721    225955.95   -72.778807   -87.840489   -195.06032    64.564392    433.23298    23.520597    22.174504    1.4211091    434.65409   -4548.1543 
   32700   -100816.75   -90676.574    246.27665    20721    225862.91    50.106019   -2.1524789   -100.71763    253.18817    433.40283    23.511146    22.165594    1.3361872    434.73901   -4552.8479 
   32800   -100843.83   -90659.429    247.35064    20721    225956.32    51.243115   -5.8290546   -69.191283    228.74968     433.4682    23.514234    22.168505    1.3034996     434.7717   -4570.4876 
   32900   -100831.59   -90638.501    247.56176    20721    225901.34    5.7651892   -126.75678    92.900438    51.151913    433.42805    23.512462    22.166835    1.3235757    434.75162   -4590.0768 
   33000    -100911.4    -90683.54    248.40622    20721    225990.64    27.965301    28.297851    270.52677   -214.92872    433.63963    23.511372    22.165806    1.2177862    434.85741    -4544.116 
   33100   -100944.32   -90651.181    249.99172    20721    226158.35    51.524918   -74.078276   -11.681204    240.33423    433.31326     23.52895    22.182379    1.3809713    434.69423   -4576.6807 
   33200   -100890.22   -90633.323    249.11152    20721    225879.35   -14.368377    6.8424994   -88.807302    38.859672    433.52578    23.508668    22.163257    1.2747091    434.80049   -4600.8937 
   33300   -100921.33   -90648.891    249.48899    20721    226183.39    65.090931   -48.965404    444.82878   -200.59059    433.90049    23.514324     22.16859    1.0873564    434.98784   -4579.5756 
   33400   -100913.99   -90671.122    248.77073    20721    226075.44    -35.32117   -189.27773    286.70606   -203.39184    433.53571      23.5186    22.172621    1.2697461    434.80545   -4557.5597 
   33500   -100934.92   -90679.721    249.07014    20721    226125.35    1.5708057   -3.2189271   -2.3418111    10.273155    433.71902    23.516225    22.170382    1.1780902    434.89711   -4550.9135 
   33600   -100954.94   -90626.284    250.85422    20721    226110.79    47.022787   -119.10135    175.07813    85.091587    433.81114    23.512971    22.167314    1.1320306    434.94317   -4607.6966 
   33700   -100808.16   -90626.787    247.27716    20721     225924.5   -43.919298   -63.420706    85.415607    -153.7528    433.50111    23.511686    22.166103    1.2870442    434.78816   -4607.6676 
   33800   -100944.09   -90621.735    250.70124    20721    226168.42    24.775091   -171.17488   -81.281306    326.78146    433.59684    23.521778    22.175617    1.2391812    434.83602   -4611.5616 
   33900   -100885.66   -90630.321    249.07354    20721    225983.54   -99.955007   -212.61111    170.94808     -258.202     433.5042    23.514674     22.16892    1.2855005     434.7897   -4606.0984 
   34000   -100814.82   -90640.956    247.09481    20721    226037.31    9.5884621   -37.192206     74.82702   -8.8694275    433.41188    23.519976    22.173919    1.3316595    434.74354   -4599.0299 
   34100   -100847.74   -90649.505    247.68665    20721    225935.12   -6.2966334   -30.140494    18.293812   -7.0432181    433.40616    23.514814    22.169052    1.3345186    434.74068   -4593.1159 
   34200   -100857.65   -90633.193    248.32345    20721    225921.86    58.350903    36.558592    386.95371   -248.45959    433.17132    23.520497     22.17441    1.4519406    434.62326   -4615.4025 
   34300   -100784.93   -90608.919    247.14691    20721     225651.4   -42.586572    244.56149   -198.29308   -174.02813    433.04297    23.509898    22.164417    1.5161148    434.55909   -4643.4872 
   34400   -100801.48   -90622.314    247.22369    20721     225797.1    12.983247   -202.40894    36.520864    204.83782    433.07084    23.516729    22.170858    1.5021795    434.57302   -4629.2269 
   34500   -100790.26   -90625.795    246.86645    20721    225763.25   -2.1497539    205.38117   -92.323032    -119.5074    433.10439    23.514056    22.168337    1.4854028     434.5898   -4627.3038 
   34600   -100971.77   -90590.307    252.13676    20721    225809.58    -84.55013   -105.05006    23.787027   -172.38736    433.14589    23.515342    22.169549    1.4646534    434.61055   -4661.6039 
   34700   -100856.85   -90569.035    249.86237    20721    225616.77    14.459235    17.360032   -98.311953    124.32963    432.89914    23.511998    22.166397    1.5880294    434.48717   -4691.8467 
   34800   -100868.62   -90606.068    249.24869    20721    225751.22   -105.93115   -175.50664    -24.52528   -117.76154    433.17302    23.511567     22.16599    1.4510905    434.62411   -4648.5676 
   34900   -100900.92   -90619.977    249.69536    20721    225751.35   -35.928823    180.74334   -41.913626   -246.61618    432.85567    23.520191    22.174121    1.6097668    434.46543   -4637.1755 
   35000   -100832.07   -90617.037    248.09459    20721    225734.15   -64.457697   -41.371573    245.79298    -397.7945    433.23091    23.509107    22.163671    1.4221433    434.65306   -4641.5811 
   35100   -100839.83   -90569.855    249.42896    20721    225471.17   -56.746248   0.78237513   -36.559794   -134.46132    432.72468    23.509148     22.16371    1.6752612    434.39994    -4700.194 
   35200   -100894.08   -90543.009    251.39878    20721    225798.75   -29.565601    36.505647    95.482076   -220.68453    433.04117    23.517621    22.171698    1.5170133    434.55819   -4719.1535 
   35300   -100706.09   -90563.135    246.34404    20721    225439.29    40.233354   -41.183931   -17.288229    179.17222      432.574     23.51158    22.166003    1.7505995     434.3246   -4710.8306 
   35400   -100715.05   -90544.534     247.0135    20721    225491.49    31.825698    15.187888   -380.72338    461.01258    432.45451     23.51755    22.171631    1.8103461    434.26485   -4727.9625 
   35500   -100741.11   -90539.445    247.76997    20721    225589.17     23.36666    24.315625    51.371964   -5.5876092     432.7226    23.515356    22.169562    1.6763025     434.3989   -4734.3875 
   35600   -100792.87       -90531    249.23221    20721    225491.22    12.110824   -134.12378     65.40223    105.05402    432.63005    23.512765     22.16712    1.7225748    434.35263   -4746.2359 
   35700   -100731.74   -90556.376    247.13113    20721    225365.15      9.01395   -27.536064    52.924423    1.6534914    432.40603    23.512279    22.166662    1.8345842    434.24062   -4723.8993 
   35800   -100765.49   -90576.811    247.45454    20721    225389.19   -5.4803369    37.146357   -14.244724   -39.342644    432.45201    23.512283    22.166665    1.8115956     434.2636   -4704.2173 
   35900    -100870.8   -90502.646    251.81365    20721    225671.12   -34.977454    127.49209   -98.534188   -133.89026    432.74476    23.519024    22.173021    1.6652203    434.40998   -4769.5309 
   36000   -100866.19   -90509.812    251.52752    20721    225510.16    77.121747    79.846529    208.38575   -56.867043    432.84591    23.507888    22.162522    1.6146455    434.46055   -4774.6603 
[...]
  491300   -93650.743   -80840.397    311.12761    20721    221011.04    24.959176    154.32316   -138.00391    58.558281    422.84224    23.545885    22.198345    6.6164804    429.45872   -22107.004 
  491400   -93448.143   -80888.911    305.02874    20721    220677.57    3.3245062    49.178707    36.245628   -75.450816    422.82293    23.528652    22.182098    6.6261355    429.44906   -22070.193 
  491500    -93472.68   -80848.345    306.60991    20721    220929.29    134.88338    108.92214    4.6975148    291.03047    423.04911    23.535774    22.188812     6.513047    429.56215   -22106.227 
  491600   -93604.036   -80887.307     308.8539    20721    220850.28    15.183616   -148.00451    58.603971    134.95139    422.39381    23.549811    22.202046    6.8406946    429.23451   -22071.782 
  491700   -93515.843   -80879.773    306.89493    20721    220733.55    20.997337   -94.637808   -59.134253    216.76407    422.46814    23.541515    22.194225    6.8035302    429.27167   -22084.354 
  491800   -93680.487   -80893.471    310.56097    20721     221187.5    53.237397   -42.391835     88.29568    113.80835    422.89383    23.553846     22.20585    6.5906861    429.48451    -22058.02 
  491900   -93508.184    -80842.76    307.60785    20721    221310.61   -58.525679   -98.165832   -170.60418     93.19297    422.78836    23.563338    22.214799     6.643422    429.43178   -22098.401 
  492000   -93508.962   -80818.479    308.21645    20721     220885.5    84.699654   -25.662089    42.419054      237.342    422.13843    23.558811    22.210531    6.9683837    429.10682   -22147.676 
  492100   -93510.518   -80795.565    308.81078    20721    221229.87   -32.772353    130.26662   -71.141086   -157.44259    422.53653    23.566059    22.217364    6.7693347    429.30587       -22155 
  492200   -93451.861   -80800.669    307.26219    20721    220682.94   -44.955966     76.97849   -58.053851   -153.79254    422.67897    23.532945    22.186145    6.6981137    429.37709   -22170.558 
  492300   -93578.242   -80819.952    309.86332    20721    220941.52    9.1617481    12.443204   -51.423992    66.466033    422.66718    23.547056    22.199449    6.7040092    429.37119   -22149.532 
  492400   -93629.959   -80856.621     310.2288    20721    221150.41   -43.446732    55.211387   -5.9315757   -179.62001    423.15062    23.544723     22.19725    6.4622893    429.61291   -22102.621 
  492500   -93563.676   -80846.192    308.87225    20721    220835.94    41.477439    45.692745   -28.715448    107.45502    422.90944    23.534686    22.187786    6.5828799    429.49232   -22131.575 
  492600   -93539.444   -80795.364     309.5182    20721    221547.78    -4.996185   -288.02514    309.71547   -36.678883    423.05586    23.568506    22.219671    6.5096693    429.56553   -22154.956 
  492700    -93590.13   -80796.699    310.71679    20721    221011.77    -113.4553    85.336181   -160.37988    -265.3222    422.93832    23.543249    22.195859     6.568439    429.50676   -22171.042 
  492800   -93621.452   -80813.153     311.0779    20721    221263.28    -35.25294    25.620207   0.53460629   -131.91363    422.73544    23.562293    22.213814    6.6698798    429.40532   -22154.025 
  492900   -93581.722   -80820.807    309.92705    20721    221107.41    22.605477   -39.886292    232.90872     -125.206    422.45335    23.561855    22.213401     6.810924    429.26428   -22157.017 
  493000   -93448.394   -80771.525    307.88584    20721    221200.67    45.560313     105.2655   -477.11814    508.53358    422.64291    23.561538    22.213102    6.7161468    429.35905   -22201.894 
  493100   -93565.301   -80809.978    309.79127    20721    221139.66    60.288243     154.9161    -219.9276    245.87622    422.45495    23.563529    22.214979    6.8101247    429.26508   -22170.458 
  493200   -93507.103   -80820.301    308.12706    20721    221290.26    21.893907   -74.021381    369.23781   -229.53471    422.44598    23.571801    22.222778    6.8146107    429.26059   -22154.322 
  493300   -93654.843   -80810.303    311.95809    20721    221336.49   -24.300007   -99.727821   -12.689904    39.517704    422.46666    23.573686    22.224555    6.8042685    429.27093   -22161.992 
  493400    -93579.81   -80847.836    309.22416    20721    220991.25    80.192231   -171.96153    166.16904    246.36918    421.77344    23.574644    22.225458    7.1508822    428.92432   -22141.924 
  493500   -93711.438   -80776.487    314.15392    20721    221285.11   -21.762999    4.9612248    -111.6906    41.440383    421.84244    23.588383    22.238411    7.1163812    428.95882   -22203.767 
  493600    -93499.87     -80761.2     309.3868    20721    221498.93    15.954904     233.4462    61.094178   -246.67566    421.92509    23.597465    22.246973    7.0750568    429.00014   -22212.219 
  493700   -93525.459   -80778.595     309.5858    20721    221300.94   -141.05647   -239.18192    39.673746   -223.66123    421.55298    23.597324     22.24684    7.2611092    428.81409   -22196.532 
  493800   -93437.844   -80792.034    307.13149    20721    221321.75   -62.108668    16.298666   -23.180276   -179.44439     421.5154    23.599486    22.248878    7.2799006     428.7953   -22186.862 
  493900   -93471.751    -80809.13    307.53979    20721    221183.56   -81.209408    33.993514   -66.154352   -211.46739    421.32342    23.597491    22.246997    7.3758903    428.69931   -22175.567 
  494000   -93529.614   -80785.484     309.5194    20721    221320.99   -37.388619    195.84547   -159.07314   -148.93819    421.60488    23.596941    22.246478    7.2351603    428.84004   -22198.148 
  494100   -93316.661   -80754.797    305.09268    20721    221016.09   -21.820464   -95.160356   -63.826978    93.525943     421.6436    23.579599    22.230129    7.2157997     428.8594   -22241.589 
  494200    -93544.01   -80766.826     310.3222    20721    221316.33   -48.091142   -14.187498   -9.9646487   -120.12128    421.99929    23.585663    22.235846    7.0379544    429.03725    -22220.75 
  494300   -93580.734   -80799.562    310.41904    20721    220906.11   -9.2510596    421.76487   -198.89087   -250.62717    421.87165    23.567358    22.218589    7.1017744    428.97343   -22208.155 
  494400   -93409.467   -80794.353    306.38597    20721    220950.64   -4.1929558   -172.40385    39.542606    120.28237    422.28627     23.55816    22.209917    6.8944634    429.18074   -22210.986 
  494500   -93524.479   -80815.827    308.65773    20721     220853.6   -16.216091    33.491538   -58.840226   -23.299585    421.60976    23.571875    22.222847     7.232719    428.84248   -22199.697 
  494600   -93435.002   -80831.996    306.09192    20721    220741.64   -3.7101473    155.26228   -437.95833     271.5656     421.4391     23.57067    22.221711    7.3180491    428.75715   -22189.092 
  494700   -93591.113   -80814.903    310.29855    20721    220940.51   -43.523475    70.487625   -129.24558   -71.812471    421.86112    23.569487    22.220596    7.1070389    428.96816    -22202.91 
  494800   -93431.238   -80820.574    306.27789    20721    220568.34    36.346771    98.587606    21.478164   -11.025457    421.40734    23.562304    22.213824    7.3339322    428.74127   -22215.832 
  494900   -93578.882   -80817.041    309.94955    20721    220939.22    19.921259    31.679986     83.70569   -55.621899    421.76051     23.57223    22.223182    7.1573442    428.91786   -22208.728 
  495000   -93555.688   -80844.851    308.71081    20721     220825.8   -59.986773    15.660535    -364.1978    168.57694    421.69994    23.567871    22.219072     7.187631    428.88757   -22181.012 
  495100   -93554.295   -80852.269    308.49681    20721    220413.98   -61.918177   -240.37901   -105.70177    160.32626    421.53172    23.550582    22.202773    7.2717401    428.80346   -22189.523 
  495200   -93571.103   -80833.323     309.3652    20721     220799.5    74.667536    219.19164   -160.57486    165.38582    421.79506     23.56381    22.215244    7.1400686    428.93513   -22204.465 
  495300   -93622.766   -80826.922    310.77538    20721    220815.59   -271.66271    -346.8221   -649.08162    180.91559    422.00785    23.558727    22.210451    7.0336735    429.04153   -22195.586 
  495400   -93524.412   -80841.379    308.03553    20721    220783.57    207.19296    139.33771   -152.54046    634.78164    422.03364    23.556299    22.208162    7.0207798    429.05442   -22205.661 
  495500   -93592.002    -80819.61    310.20583    20721    221062.43    143.18741    79.735398    215.20207    134.62476    421.75586    23.578932      22.2295    7.1596677    428.91553   -22214.368 
  495600   -93492.516   -80797.294    308.33157    20721    221143.22   -38.747042    261.10413   -145.38005    -231.9652    422.09935    23.573642    22.224513    6.9879227    429.08728   -22228.111 
  495700   -93517.766   -80810.818    308.61637    20721    220874.26   -133.31166   -44.485098   -21.834353   -333.61552    421.85998    23.565986    22.217295    7.1076094    428.96759   -22221.137 
  495800   -93539.387   -80806.862    309.23755    20721    220727.63   -1.8188147    240.76601   -483.01134    236.78889    422.00246    23.554185    22.206169    7.0363704    429.03883   -22239.894 
  495900   -93431.452   -80798.479    306.81972    20721     220659.8    110.29597    168.30413    95.365576    67.218196      422.054    23.549127    22.201401    7.0105983     429.0646   -22255.932 
  496000    -93434.81   -80818.379    306.41795    20721    220595.54     59.82899    157.45775    122.63772    -100.6085    421.84579    23.551508    22.203645    7.1147045     428.9605   -22238.086 
  496100   -93521.708   -80773.126    309.62755    20721    220645.36   -15.300212   -234.53808    228.41277   -39.775328    421.58892    23.561342    22.212917    7.2431404    428.83206   -22281.196 
  496200   -93435.319   -80829.176    306.16808    20721    220736.73   -29.650901    -146.1098   -196.80151    253.95861    421.56595    23.566862    22.218121    7.2546231    428.82058     -22222.3 
  496300   -93669.189   -80858.573    311.13415    20721    221012.72    109.79783   -28.971165    215.56045    142.80419    421.58782    23.580979     22.23143    7.2436901    428.83151   -22191.255 
  496400   -93606.898   -80844.844    309.95473    20721    220934.52   -47.070861   -127.94948   -21.836557    8.5734527    421.36003    23.583178    22.233504    7.3575847    428.71762   -22202.421 
  496500   -93588.951   -80924.969    307.57283    20721    220640.97   -78.142417   -129.49084    161.52458   -266.46098    421.07802    23.575397    22.226168    7.4985919    428.57661   -22131.738 
  496600    -93592.07   -80873.392    308.90124    20721    220517.78   -29.729413   -7.0337318   -223.79334    141.63884    420.89133    23.574041    22.224889    7.5919342    428.48327   -22193.462 
  496700   -93541.097   -80873.562    307.65913    20721    220253.33    72.219762   -82.048974   -124.41455    423.12281    420.79373    23.562633    22.214135    7.6407363    428.43446   -22207.753 
  496800   -93487.879   -80842.712    307.11587    20721    220701.66    9.8229378    19.304826   -133.33656    143.50054    421.43098    23.568763    22.219913    7.3221118    428.75309   -22223.296 
  496900   -93534.845   -80846.746    308.15855    20721    220553.34    56.576255     20.91503    111.39751    37.416224    421.18261    23.567788    22.218994    7.4462941    428.62891   -22227.846 
  497000   -93459.562   -80827.544    306.79651    20721     220564.7    168.17504    34.199213     91.42091      378.905    421.04512    23.572243    22.223194    7.5150417    428.56016   -22253.771 
  497100   -93520.792   -80768.437    309.71916    20721    221044.06   -18.498599   -53.609503    74.123397   -76.009691    420.93954    23.600803    22.250119    7.5678277    428.50737   -22288.526 
  497200   -93495.077   -80843.723    307.26614    20721     220947.7    -1.809927    44.118771   -320.49664    270.94809    421.22307    23.587715    22.237781    7.4260634    428.64914   -22219.167 
  497300    -93636.77   -80835.625    310.90415    20721    220795.71   -21.694139   -176.84741    257.42843   -145.66344    421.46028    23.572965    22.223875    7.3074616    428.76774   -22235.742 
  497400   -93532.404   -80843.806    308.17069    20721    220591.18   -8.6710689    116.32096   -211.52257    69.188403    421.12458    23.571433    22.222431    7.4753095    428.59989   -22236.508 
  497500   -93658.203   -80877.021    310.41928    20721    220785.44    29.588331    220.03856   -199.34488    68.071316    421.26736    23.577813    22.228446    7.4039185    428.67128   -22198.809 
  497600   -93626.993   -80835.124    310.67885    20721     220686.7   -53.935859   -273.13795    224.33362   -113.00324    421.19617    23.574532    22.225352    7.4395152    428.63568   -22243.423 
  497700   -93555.372   -80794.923    309.91574    20721    220860.28    122.19679    51.386072    75.908886     239.2954    421.10433    23.586373    22.236516    7.4854335    428.58977   -22284.005 
  497800   -93598.895   -80838.268    309.92008    20721    220658.36   -42.803362    104.97272    -46.67339   -186.70942    420.74043    23.585782    22.235958    7.6673863    428.40781   -22243.707 
  497900    -93603.71   -80803.968    310.87005    20721    221010.13    162.36028    284.27448     4.347376    198.45899    420.87929    23.600681    22.250004    7.5979574    428.47724   -22276.267 
  498000   -93603.385   -80765.914    311.78639    20721    221405.29    21.034619    34.155697    68.517501   -39.569341    421.51194    23.604036    22.253168    7.2816297    428.79357   -22295.083 
  498100   -93408.904   -80772.232    306.90954    20721    220833.87    24.231899   -82.388056   -83.197459    238.28121     420.7593    23.594631    22.244301    7.6579476    428.41725   -22312.074 
  498200   -93558.203   -80760.395    310.82307    20721    220791.46    24.491762    2.7971445    87.414199   -16.736057    421.02051    23.585046    22.235264    7.5273468    428.54785   -22329.436 
  498300   -93697.147   -80722.088    315.12803    20721    220860.28    42.304257    247.59632   -221.02759    100.34404    421.40804    23.577873    22.228501    7.3335789    428.74162   -22368.625 
  498400   -93636.855   -80725.506     313.5807    20721    220692.17   -254.20202   -313.43667   -131.99146   -317.17792    421.24672     23.57341    22.224294    7.4142409    428.66096   -22360.213 
  498500   -93467.682   -80717.225    309.67306    20721    220678.84    94.333538    70.757827    275.25283   -63.010046    421.40762    23.568197     22.21938    7.3337902    428.74141   -22384.015 
  498600   -93614.224   -80776.175    311.80042    20721    220766.34   -39.451827    33.057274    -281.4482    130.03544    421.52524    23.569581    22.220684    7.2749801    428.80022   -22318.114 
  498700   -93554.582   -80803.194    309.69568    20721     220868.2   -41.110306   -96.992298    416.46828    -442.8069    421.73159    23.569249    22.220372    7.1718073    428.90339   -22287.401 
  498800   -93528.104   -80815.344    308.75749    20721    220847.03   -17.780494    145.18225   -246.89884    48.375109    421.72454    23.568316    22.219492    7.1753279    428.89987   -22279.721 
  498900   -93621.168   -80797.295    311.45613    20721    220606.84   -9.0777627    133.19099   -261.12336    100.69909    421.34013    23.566239    22.217534    7.3675357    428.70766   -22308.933 
  499000   -93511.912   -80811.667    308.45356    20721    220364.37    11.754217   -151.94955    52.316552    134.89565    421.36606     23.55256    22.204638    7.3545678    428.72063   -22304.822 
  499100   -93556.135    -80850.41    308.58665    20721    220625.23    124.61478    81.301636    185.99208    106.55062    421.49995    23.562753    22.214247    7.2876236    428.78758   -22262.771 
  499200   -93540.415   -80842.337    308.40093    20721    220619.42    23.407517    95.001034   -85.464316    60.685832    421.14306    23.572425    22.223366    7.4660706    428.60913   -22269.512 
  499300   -93559.715   -80784.773    310.26773    20721    220831.75    15.583662    130.11038    28.849883   -112.20928    421.72694    23.567434     22.21866    7.1741289    428.90107   -22321.282 
  499400   -93481.306   -80804.644    307.88079    20721    220623.14    35.102916    36.187824    54.317243     14.80368    421.15538    23.572279    22.223228    7.4599105    428.61529   -22309.632 
  499500   -93626.142   -80832.896    310.71229    20721    220602.68   -19.627998    140.97425    141.40856    -341.2668    421.17327    23.570685    22.221726    7.4509671    428.62423   -22285.365 
  499600   -93438.939   -80809.247    306.74002    20721    220797.91   -3.4250121    146.50855   -229.02815     72.24457    421.71134    23.566064    22.217369    7.1819296    428.89327   -22302.732 
  499700   -93547.689   -80787.211    309.91646    20721    221148.07    141.61865    149.06342    191.15622     84.63631    421.95102    23.578044    22.228663    7.0620918    429.01311   -22320.728 
  499800   -93488.689   -80805.865    308.03045    20721    220872.83    18.708872   -41.319807    48.396945    49.049479    421.51989    23.575414    22.226183    7.2776565    428.79754     -22308.1 
  499900   -93479.442   -80827.033    307.29176    20721    220620.42    62.636186    12.037892    352.30404   -176.43337    421.51018     23.56221    22.213736    7.2825077    428.79269   -22299.451 
  500000    -93527.21   -80776.885    309.66985    20721    220836.69   -64.955921    -409.9763   -13.382434    228.49097    421.53352    23.573104    22.224006     7.270841    428.80436   -22340.426 
Loop time of 51999.4 on 32 procs for 500000 steps with 20721 atoms

Performance: 1.662 ns/day, 14.444 hours/ns, 9.615 timesteps/s
97.3% CPU use with 32 MPI tasks x no OpenMP threads

MPI task timing breakdown:
Section |  min time  |  avg time  |  max time  |%varavg| %total
---------------------------------------------------------------
Pair    | 6446.6     | 9193       | 12989      |2462.7 | 17.68
Bond    | 0.37087    | 0.45521    | 0.58982    |   8.1 |  0.00
Kspace  | 8073.7     | 11885      | 14646      |2178.8 | 22.86
Neigh   | 8397.6     | 10524      | 12309      |1448.3 | 20.24
Comm    | 425.49     | 3753.3     | 7538.8     |4340.3 |  7.22
Output  | 4.6909     | 46.186     | 74.489     | 365.4 |  0.09
Modify  | 13034      | 16559      | 21747      |2407.7 | 31.84
Other   |            | 38.81      |            |       |  0.07

Nlocal:    647.531 ave 695 max 604 min
Histogram: 2 3 6 8 0 0 2 5 2 4
Nghost:    7296.62 ave 7800 max 6804 min
Histogram: 4 4 5 3 2 0 2 1 7 4
Neighs:    238360 ave 269678 max 213499 min
Histogram: 3 10 5 1 0 1 1 0 7 4
FullNghs:  476724 ave 538193 max 426109 min
Histogram: 2 9 7 1 0 1 1 1 5 5

Total # of neighbors = 15255157
Ave neighs/atom = 736.217
Ave special neighs/atom = 2
Neighbor list builds = 500000
Dangerous builds not checked
write_data production.R1
PPPM initialization ...
  extracting TIP4P info from pair style
WARNING: Using 12-bit tables for long-range coulomb (../kspace.cpp:316)
  G vector (1/distance) = 0.345951
  grid = 400 48 48
  stencil order = 5
  estimated absolute RMS force accuracy = 0.000400791
  estimated relative force accuracy = 1.20697e-06
  using double precision FFTs
  3d grid and FFT values/proc = 67260 38400
write_restart restartproduction.R1
PPPM initialization ...
  extracting TIP4P info from pair style
WARNING: Using 12-bit tables for long-range coulomb (../kspace.cpp:316)
  G vector (1/distance) = 0.345951
  grid = 400 48 48
  stencil order = 5
  estimated absolute RMS force accuracy = 0.000400791
  estimated relative force accuracy = 1.20697e-06
  using double precision FFTs
  3d grid and FFT values/proc = 67260 38400
Total wall time: 14:26:39
