LAMMPS (30 Jul 2016)
# Sets up LAMMPS simulation for transient melting of ice: TIP4P/Ice
# Ensure cold thermostats do not move
# Thinbox: 16x1x1
# Defects
# Order param l=2

#### setting MD parameters ####
units real
boundary p p p
atom_style full

# read ice box in restart file
### read the equilibrated NPT restart file

read_restart restart.state
  orthogonal box = (0.350235 0.0188992 0.0178176) to (435.725 23.5123 22.1667)
  32 by 1 by 1 MPI processor grid
  20736 atoms
  13824 bonds
  6912 angles
  2 = max # of 1-2 neighbors
  1 = max # of 1-3 neighbors
  1 = max # of 1-4 neighbors
  2 = max # of special neighbors


#### force field definition ####
pair_style      lj/cut/tip4p/long 2 1 1 1 0.1577 10.0
pair_modify	tail yes

kspace_style	pppm/tip4p 1.0e-6

bond_style	harmonic
angle_style	harmonic
dihedral_style	none
improper_style	none

bond_coeff	1 450.0 0.9572
angle_coeff	1 55.0 104.52


# reset pair coeff
pair_coeff	* * 0.0 0.0

#OO
pair_coeff	2 2 0.21085 3.1668
#OH
pair_coeff	* 1 0.0000 0.0000

neighbor        2.0 bin
neigh_modify    every 1 delay 1 check no

timestep	2.0
fix		constraints all shake 0.000001 20 0 b 1 a 1
  0 = # of size 2 clusters
  0 = # of size 3 clusters
  0 = # of size 4 clusters
  6912 = # of frozen angles

group water type 1 2
20736 atoms in group water

#*********** SIMULATION PARAMETER TO ADJUST ****************
#Box dimensions
variable lx equal lx
variable ly equal ly
variable lz equal lz

### Temperature of the hot and cold regions ####
variable thi equal 375
variable tlo equal 215
variable runpressure equal 0.986923


# Configuration equilibrated in density and temperature

# Define dx here

variable lx equal lx
variable ly equal ly
variable lz equal lz

variable xlo equal xlo
variable xhi equal xhi

variable boxcentre equal ${xlo}+(${xhi}-${xlo})/2
variable boxcentre equal 0.350235280770789+(${xhi}-${xlo})/2
variable boxcentre equal 0.350235280770789+(435.724964719228-${xlo})/2
variable boxcentre equal 0.350235280770789+(435.724964719228-0.350235280770789)/2

variable dx equal 2.0

#### ADD IN DEFECTS AT THE CENTRE OF THE HOT THERMOSTAT #####
variable y1 equal ${ly}/2.0
variable y1 equal 23.4934016732943/2.0
variable z1 equal ${lz}/2.0
variable z1 equal 22.1488648866692/2.0

region kill1 sphere ${boxcentre} ${y1} ${z1} 3
region kill1 sphere 218.037599999999 ${y1} ${z1} 3
region kill1 sphere 218.037599999999 11.7467008366472 ${z1} 3
region kill1 sphere 218.037599999999 11.7467008366472 11.0744324433346 3
delete_atoms region kill1 compress no bond yes mol yes
Deleted 12 atoms, new total = 20724
Deleted 8 bonds, new total = 13816
Deleted 4 angles, new total = 6908
############


variable thip equal ${thi}*2.0/3.0
variable thip equal 375*2.0/3.0
variable tlop equal ${tlo}*2.0/3.0
variable tlop equal 215*2.0/3.0
variable hbl equal ${boxcentre}-${dx}
variable hbl equal 218.037599999999-${dx}
variable hbl equal 218.037599999999-2
variable hbh equal ${boxcentre}+${dx}
variable hbh equal 218.037599999999+${dx}
variable hbh equal 218.037599999999+2

#***************************************************
## EQUILIBRATION PERIOD - to reach the steady state ###
#run 0

#reset the timestep to start your production run
reset_timestep 0

# define a group to perform averages
#group s1 type 1
###*** SYSTEM THERMOSTATTING: HOT and COLD regions ***###

fix NVE all nve
fix PRESS all press/berendsen aniso ${runpressure} ${runpressure} 500000 couple yz
fix PRESS all press/berendsen aniso 0.986923 ${runpressure} 500000 couple yz
fix PRESS all press/berendsen aniso 0.986923 0.986923 500000 couple yz


### Apply THERMOSTATS ###

#set up the "hot region" in the middle of the box
region hot block ${hbl} ${hbh} 0 ${ly} 0 ${lz} units box
region hot block 216.037599999999 ${hbh} 0 ${ly} 0 ${lz} units box
region hot block 216.037599999999 220.037599999999 0 ${ly} 0 ${lz} units box
region hot block 216.037599999999 220.037599999999 0 23.4934016732943 0 ${lz} units box
region hot block 216.037599999999 220.037599999999 0 23.4934016732943 0 22.1488648866692 units box


#set up the "cold region" at the left end of the box
#region cold block ${cbl} ${cbh} 0 ${ly} 0 ${lz} units box

#set up the "cold region" at the right end of the box
#region cold2 block ${h2bl} ${xhi} 0 ${ly} 0 ${lz} units box


#Cold regions  unification
#region cold union 2 cold1 cold2 units box

#Create group of cold molecules
####group cool_ice region cold
####group cool_ice include molecule

####compute cold_temp cool_ice temp
####fix cold_rescale water temp/rescale 1 ${tlo} ${tlo} 0.0001 1.0
####fix_modify cold_rescale temp cold_temp

#this calculates the temperature using only the atoms in the "hot region"
#compute hot_temp all temp/region hot

# calculate the temperature using only WATER in the "hot region"
compute hot_temp water temp/region hot

#this calculates the temperature using only WATER in the "cold region"
#compute cold_temp water temp/region cold


#set up a basic velocity rescale for the hot region WATER with thip
fix hot_rescale water temp/rescale 1 ${thip} ${thip} 1.0 1.0
fix hot_rescale water temp/rescale 1 250 ${thip} 1.0 1.0
fix hot_rescale water temp/rescale 1 250 250 1.0 1.0
#change the thermostat to only act on the "hot region"
#this is done by passing it the "hot temp" compute that we defined above
fix_modify hot_rescale temp hot_temp

#set up a basic velocity rescale for the cold region
#fix cold_rescale water temp/rescale 1 ${tlop} ${tlop} 1.0 1.0
#change the thermostat to only act on the "cold region"
#this is done by passing it the "cold temp" compute that we defined above
#fix_modify cold_rescale temp cold_temp

### Ensure MOMENTUM CONSERVATION ###

#ensure that linear momentum is conserved despite the "thermostatting" by velocity rescaling
fix cons_mom all momentum 1 linear 1 1 1


thermo 100
thermo_style custom step pe etotal temp atoms vol press pxx pyy pzz lx ly lz xlo xhi  f_hot_rescale

group ox type 2
6908 atoms in group ox
group hy type 1
13816 atoms in group hy
compute KE all ke/atom
variable TEMP atom c_KE*4186.8/(1.3806488*6.02214129)

compute cc1 all chunk/atom bin/1d x center 2 units box
#fix TPROFILE all ave/chunk 1 500 500 cc1 v_TEMP density/number file temp.dat
fix TPROFILEox ox ave/chunk 1 500 500 cc1 v_TEMP density/number file temp-ox.dat
fix TPROFILEhy hy ave/chunk 1 500 500 cc1 v_TEMP density/number file temp-hy.dat

compute orderparam ox orientorder/atom degrees 1 2 nnn 4 cutoff 3.5
compute cc2 ox chunk/atom bin/1d x center 2 units box
#fix ORDERPARAM all ave/chunk 1 500 500 cc2 c_orderparam[1] file order-param.dat
fix ORDERPARAM all ave/chunk 1 500 500 cc2 c_orderparam[1] file order-param.dat

restart 50000 config.restart

run 500000
PPPM initialization ...
  extracting TIP4P info from pair style
WARNING: Using 12-bit tables for long-range coulomb (../kspace.cpp:316)
  G vector (1/distance) = 0.345578
  grid = 405 48 48
  stencil order = 5
  estimated absolute RMS force accuracy = 0.000406403
  estimated relative force accuracy = 1.22387e-06
  using double precision FFTs
  3d grid and FFT values/proc = 67260 38880
Neighbor list info ...
  2 neighbor list requests
  update every 1 steps, delay 1 steps, check no
  max neighbors/atom: 2000, page size: 100000
  master list distance cutoff = 12.3154
  ghost atom cutoff = 12.3154
  binsize = 6.1577 -> bins = 71 4 4
Memory usage per processor = 12.7931 Mbytes
Step PotEng TotEng Temp Atoms Volume Press Pxx Pyy Pzz Lx Ly Lz Xlo Xhi hot_resc 
       0   -103834.29   -95015.841    214.14445    20724    226548.19   -188.07581   -81.396078   -115.52899   -367.30235    435.37473    23.493402    22.148865   0.35023528    435.72496            0 
     100   -103680.41   -94785.491    216.00157    20724    226179.15    28.866606    51.219288   -225.80886    261.18939    435.09454    23.481816    22.137942   0.49032875    435.58487    -244.6057 
     200   -103619.36   -94664.931    217.44655    20724    226147.77   -32.935119   -171.11568    267.28357   -194.97324     434.9702    23.483543     22.13957   0.55250089     435.5227   -362.39403 
     300   -103512.62   -94579.841    216.92098    20724    226301.45    2.5673226    -55.17106    20.198652    42.674375    435.03261    23.489836    22.145503   0.52129687     435.5539   -446.73723 
     400   -103575.25   -94532.531    219.59067    20724    226202.27    59.162247    96.935315   -40.399214    120.95064     434.9607    23.486629     22.14248   0.55725005    435.51795   -499.61253 
     500   -103602.75    -94538.03    220.12495    20724    226314.89   -47.458068   -156.40181   -207.00537    221.03297    434.94419     23.49292    22.148411   0.56550595    435.50969   -487.03087 
     600   -103488.27   -94452.413    219.42409    20724    226296.33    2.0373958    51.435178    17.807163   -63.130153     435.0587    23.488865    22.144588   0.50824835    435.56695    -575.6315 
     700   -103580.58   -94424.724    222.33801    20724    226393.81     13.89147    64.978883   -27.998099    4.6936273    434.99065    23.495762     22.15109    0.5422771    435.53292   -603.05052 
     800   -103456.09    -94349.19    221.14918    20724    226442.06   -13.728308   -71.206391   -103.11192    133.13339     435.3632    23.488209    22.143969   0.35600037     435.7192   -675.37247 
     900    -103410.1   -94329.417    220.51246    20724    226416.56    78.377625    37.293145    381.53736   -183.69763    435.12913    23.493203    22.148677   0.47303496    435.60217   -702.20517 
    1000   -103404.67   -94315.561    220.71711    20724    226389.43   -33.366122   -18.355125    197.44216    -279.1854    435.16459    23.490838    22.146448   0.45530643    435.61989   -710.45365 
    1100   -103399.34   -94297.088    221.03631    20724    226291.48   -21.396907    95.254286   -266.05287    106.60786     435.3445    23.480903    22.137081   0.36535119    435.70985   -733.48438 
    1200   -103491.17   -94274.173    223.82288    20724     226437.4   -28.100276   -61.156724   -291.37406    268.22995    435.27759    23.490277    22.145919   0.39880564    435.67639   -752.87949 
    1300   -103420.97   -94244.817    222.83103    20724     226320.4   -45.645934   -165.20924   -102.73666     131.0081    435.20625    23.486132    22.142012   0.43447656    435.64072    -786.6132 
    1400   -103352.32   -94183.895    222.64325    20724    226348.59   -14.033635    105.94608    142.02816   -290.07514    435.23454    23.486831    22.142671   0.42032923    435.65487   -847.45811 
    1500    -103337.8   -94208.516    221.69271    20724    226383.29    14.141494    117.48567    129.88793   -204.94912    435.41976    23.483635    22.139658   0.32771907    435.74748   -825.18016 
    1600   -103319.24   -94203.527    221.36332    20724    226438.46    66.168239    204.99154    19.394761   -25.881581    435.49996    23.484334    22.140316   0.28762163    435.78758   -831.83731 
    1700   -103342.61   -94170.235    222.73916    20724    226445.55   -51.537981    -30.41497    121.06453    -245.2635    435.22407    23.492144    22.147679   0.42556394    435.64964   -860.55822 
    1800   -103363.19    -94160.09    223.48537    20724    226411.17   -6.7846325   -198.87403    195.18337   -16.663237    435.15848    23.492131    22.147667   0.45835845    435.61684   -873.59125 
    1900   -103373.54   -94136.384    224.31218    20724    226464.02   -29.383775    85.852464     154.6324   -328.63619     435.2321    23.492886    22.148378   0.42154891    435.65365   -897.20668 
    2000   -103268.32   -94145.546    221.53463    20724    226425.57    86.930314    200.83793    239.67107   -179.71806    435.08884    23.494758    22.150144   0.49317945    435.58202   -893.64605 
    2100   -103370.59   -94107.651    224.93829    20724    226510.63   -33.076106     -103.559   -69.169159    73.499836     435.3378     23.49245    22.147968   0.36869824     435.7065   -925.02484 
    2200   -103260.92   -94068.262    223.23168    20724     226507.7   -81.368523   -282.98614    103.81295   -64.932376    435.25618    23.494501    22.149901   0.40951135    435.66569   -962.68829 
    2300   -103318.58   -94093.844    224.01075    20724    226496.75    107.59129    126.31659    129.30312    67.154153    435.20479     23.49532    22.150674   0.43520419       435.64   -948.77873 
    2400   -103285.21   -94045.723    224.36893    20724    226561.17   -1.0438362   -91.238077   -174.90893     263.0155    435.27566    23.496748     22.15202   0.39977067    435.67543   -989.73306 
    2500   -103239.07   -94000.263    224.35249    20724    226555.45    2.3672333    86.474862   -247.87433    168.50117    435.36667    23.493996    22.149425   0.35426621    435.72093   -1037.3687 
    2600   -103247.45   -93992.824    224.73664    20724    226475.75    46.602211   -170.63089    103.95958    206.47794    435.37404    23.489664    22.145341   0.35057948    435.72462    -1050.056 
    2700   -103214.57   -93973.669    224.40322    20724    226615.59  -0.72753196    4.2908875    18.045605   -24.519088    435.34918    23.497586    22.152809    0.3630107    435.71219   -1063.2751 
    2800   -103232.48   -93977.122     224.7542    20724    226557.65   -29.994569   -39.554068   -60.610132    10.180494     435.3905    23.493467    22.148926   0.34234963    435.73285   -1061.3591 
    2900    -103118.9     -93938.1     222.9438    20724    226589.89    63.033512    15.322299     31.00562    142.77262    435.60917     23.48924    22.144941   0.23301361    435.84219   -1104.0529 
    3000   -103296.26   -93958.853    226.74679    20724    226511.29   -46.440405   -14.439082    110.87513   -235.75726    435.43725    23.489802    22.145471   0.31897444    435.75623     -1081.06 
    3100   -103150.99   -93902.444    224.58883    20724    226618.88    -8.736313   -38.579154    450.09039   -437.72018    435.34966    23.497743    22.152958   0.36276905    435.71243   -1135.5756 
    3200   -103213.72   -93944.493    225.09112    20724    226583.38   -21.349322   -19.823332   -51.143059     6.918423    435.45836     23.49297    22.148458   0.30842222    435.76678   -1095.3263 
    3300   -103228.09   -93921.153    226.00672    20724    226648.62    15.665147    31.526127   -190.21969      205.689    435.44942    23.496593    22.151874   0.31289069    435.76231   -1121.3004 
    3400   -103106.58   -93863.117    224.46545    20724    226572.03    -14.29134   -198.17795    133.10717    22.196753    435.26395    23.497627    22.152849   0.40562558    435.66957   -1177.9677 
    3500    -103251.9    -93908.34    226.89609    20724     226668.4     34.42084   -48.103316    215.74034   -64.374503    435.29104    23.501893     22.15687   0.39207876    435.68312   -1136.2119 
    3600   -103183.73   -93867.251    226.23852    20724    226482.35   -16.230512     25.86225   -79.483899    4.9301115    435.21654    23.494256    22.149671   0.42932913    435.64587   -1178.7317 
    3700   -103075.16   -93823.874    224.65551    20724    226619.52    120.55621    293.84437   -113.22594    181.05021     435.4354    23.495463    22.150808   0.31990071     435.7553   -1226.4905 
    3800   -103092.06    -93770.41    226.36402    20724     226657.3    62.047663    21.254542   -68.673409    233.56186    435.34722    23.499801    22.154898   0.36398818    435.71121   -1277.7294 
    3900   -102986.71   -93749.926    224.30317    20724    226633.79    31.198797    50.935031    270.50383   -227.84247    435.40225    23.497097    22.152349    0.3364756    435.73872    -1296.223 
    4000   -103063.88    -93716.39     226.9916    20724    226550.41   -71.214127   -10.375779   -243.47348    40.206883    435.39879    23.492868    22.148361    0.3382065    435.73699   -1328.3408 
    4100   -103107.84   -93726.711    227.80859    20724    226711.53   -15.600792   -14.499355   -20.176014   -12.127006    435.41483    23.500787    22.155828   0.33018711    435.74501   -1318.6989 
    4200   -103045.74    -93707.82    226.75922    20724    226520.96   -25.261607   -62.892706   -177.13351    164.24139    435.26058     23.49507    22.150438   0.40731227    435.66789   -1341.0434 
    4300   -103070.99   -93653.079    228.70169    20724    226648.07    3.1942286    6.2253131   -85.264795    88.622168    435.35051    23.499234    22.154363   0.36234615    435.71285   -1396.9594 
    4400   -102961.08   -93640.881      226.329    20724    226657.24    48.746165    -32.37484    377.09551   -198.48217    435.43296    23.497484    22.152714   0.32112093    435.75408   -1410.1237 
    4500   -103047.14   -93634.187    228.58118    20724    226795.81   -15.202759    40.540487   -12.203783   -73.944981    435.51424    23.502472    22.157416   0.28047934    435.79472   -1410.9682 
    4600   -103020.06   -93638.607    227.81639    20724    226538.99    42.000794    248.46307   -367.45481    244.99413    435.23316    23.496745    22.152017   0.42101957    435.65418   -1420.5051 
    4700   -103111.75   -93649.806    229.77088    20724    226612.59   -45.542262    4.0367385   -217.60965    76.946125     435.3683    23.496914    22.152176   0.35344765    435.72175   -1403.2567 
    4800   -103060.88   -93614.789    229.38604    20724    226589.76    -109.4289   -40.751082   -172.93275   -114.60287    435.07553    23.503634    22.158512    0.4998347    435.57537   -1437.6524 
    4900   -103004.71   -93614.121    228.03824    20724    226541.38    45.560402    38.253517    271.64261   -173.21492    435.16903      23.4986    22.153766   0.45308601    435.62211   -1448.5488 
    5000    -103042.4   -93611.313    229.02158    20724     226572.4    8.0017751    7.9758275   -97.733769    113.76327    435.26101    23.497726    22.152942   0.40709673     435.6681     -1449.62 
    5100   -103015.12    -93612.61    228.32767    20724    226636.74    7.5863835    82.910402    24.442354   -84.593605    435.24473    23.501502    22.156502   0.41523745    435.65996    -1447.328 
    5200   -102991.31   -93610.586    227.79855    20724    226345.05   -41.771633   -1.5465396    40.027899   -163.79626    435.17758    23.488185    22.143947   0.44880849    435.62639   -1454.3696 
    5300   -103059.28   -93635.943    228.83346    20724    226564.31  -0.63686793   -23.082027    136.41178   -115.24036    435.09242    23.501859    22.156838   0.49138985    435.58381   -1427.8393 
    5400   -102987.07   -93616.468    227.55281    20724    226420.21    118.23498    102.06091    216.34177    36.302245     435.1036    23.494081    22.149506   0.48579768     435.5894   -1458.4244 
    5500   -102951.34    -93578.17    227.61515    20724    226479.89    38.004463    132.22862   -52.767713    34.552484    435.17335    23.495294    22.150649   0.45092361    435.62428   -1487.8324 
    5600   -103009.97   -93557.251    229.54694    20724    226428.04   -9.2434088    65.284733   -122.85723    29.842275     435.2564    23.490363       22.146   0.40939881     435.6658   -1512.4585 
    5700   -102992.21   -93543.398    229.45209    20724    226588.56   -18.738269   -49.626672   -70.525475    63.937338    435.09544    23.503035    22.157947    0.4898797    435.58532   -1521.3362 
    5800   -102931.19   -93494.009    229.16959    20724    226513.91    49.584296   -59.998944   -39.971695    248.72353    435.05674    23.500208    22.155282   0.50922856    435.56597   -1576.7018 
    5900   -102918.52   -93461.165    229.65959    20724    226486.69     24.94044   -23.775127   -98.513521    197.10997    435.31411    23.491848      22.1474   0.38054591    435.69465   -1611.1538 
    6000   -102884.52   -93452.216     229.0512    20724    226412.69    46.725014    34.092521    233.73879   -127.65627    435.23126    23.490246    22.145889   0.42197161    435.65323   -1623.1078 
    6100   -102879.89   -93431.686    229.43731    20724    226538.58    22.476971    36.307206   -64.886078    96.009784     435.2355    23.496661    22.151937    0.4198516    435.65535   -1639.9093 
    6200   -102852.06   -93340.636    230.97248    20724    226575.72   -31.560799   -30.833282   -290.39777    226.54866    435.08484    23.502655    22.157589   0.49518061    435.58002   -1729.7462 
    6300   -102834.47   -93352.867     230.2483    20724    226662.97    39.891295    230.61704   -90.770092   -20.173061    435.18521    23.504469    22.159299   0.44499585     435.6302   -1717.5008 
    6400    -102859.4    -93373.47    230.35349    20724    226518.65   -57.209449   -72.818214    73.045859   -171.85599    435.31472    23.493489    22.148947   0.38023968    435.69496   -1698.0171 
    6500   -102869.63   -93410.524    229.70204    20724       226737     66.13937   -15.246918   -3.7366244    217.40165    435.32071    23.504648    22.159467   0.37724325    435.69796   -1659.5045 
    6600   -102807.91   -93362.006    229.38139    20724    226511.57    115.96541    232.75733    193.44651   -78.307603    435.17749    23.496826    22.152093   0.44885268    435.62635    -1720.158 
    6700   -102860.28   -93361.823    230.65755    20724    226750.03   -43.943437    2.7423761   -147.21033    12.637638    435.46796    23.501349    22.156357   0.30361823    435.77158   -1707.1669 
    6800   -102825.57   -93358.016    229.90718    20724    226580.56    72.712227   -63.791094    150.61403    131.31375    435.17771    23.500398     22.15546   0.44874345    435.62646   -1721.1406 
    6900   -102826.48   -93350.763    230.10533    20724    226763.11    10.507407    43.765743   -62.688089    50.444568    435.45727    23.502315    22.157268   0.30896747    435.76623   -1721.1268 
    7000   -102774.03   -93318.033    229.62652    20724    226759.01    29.022057    10.555762    288.76253   -212.25213    435.30923    23.506099    22.160835   0.38298465    435.69222    -1755.729 
    7100   -102873.79   -93315.458    232.11157    20724    226707.61   -41.132693     21.99487    17.051614   -162.44456    435.15686    23.507549    22.162203   0.45916853    435.61603   -1756.9939 
    7200    -102762.6   -93319.293    229.31837    20724    226727.78    11.209856   -2.9210518   -181.95204    218.50266     435.5692    23.497464    22.152695   0.25299831     435.8222   -1755.2819 
    7300   -102851.18   -93309.744    231.70138    20724    226584.04   -158.39384    -436.2215   -163.25631    124.29628    435.33736    23.496269    22.151568   0.36892107    435.70628   -1760.8808 
    7400   -102886.95   -93314.956    232.44331    20724    226583.73    41.462643    160.94257   -15.575402   -20.979234    435.09189     23.50288    22.157801   0.49165706    435.58354   -1769.3323 
    7500   -102731.31   -93256.257    230.08941    20724    226598.84   -26.262148   -237.67325    275.90216   -117.01536    435.40167    23.495301    22.150655   0.33676271    435.73844   -1823.6117 
    7600   -102789.22   -93253.633    231.55934    20724    226649.41   -6.8700725    19.408568   -114.57213    74.553343     435.2425    23.502219    22.157178   0.41635132    435.65885   -1827.3035 
    7700   -102722.29    -93240.35     230.2565    20724    226555.13    16.707019    44.045245    102.75987   -96.684056    435.15339    23.499736    22.154836   0.46090415     435.6143   -1845.8739 
    7800   -102759.68   -93235.918    231.27218    20724    226755.28     11.75112    129.12774    210.99651   -304.87089    435.38759     23.50379    22.158658    0.3438031     435.7314   -1845.8299 
    7900    -102794.7   -93234.281    232.16235    20724     226772.7    64.480877    36.164461    43.821992    113.45618    435.34677    23.505794    22.160548   0.36421444    435.71099   -1849.8079 
    8000   -102756.71   -93214.933    231.70968    20724       226849    37.409629    89.368431   -243.08578    265.94624     435.5288    23.504835    22.159644   0.27319966      435.802    -1865.553 
    8100   -102721.59   -93181.798    231.66131    20724    226695.55     4.634319    125.38009    -123.6003    12.123161    435.43593     23.49939     22.15451   0.31963599    435.75556   -1901.1956 
    8200   -102690.95   -93194.161    230.61718    20724    226670.51    5.0074782   -37.238819    260.42517   -208.16391    435.22131    23.503885    22.158748   0.42694704    435.64825   -1891.3036 
    8300   -102627.88   -93170.051    229.67111    20724    226649.82    54.712249   -42.339592    326.21653   -119.74019     435.3568    23.499155    22.154288   0.35919757      435.716    -1919.941 
    8400    -102767.9   -93178.038    232.87734    20724    226831.52   -59.158134   -6.0617262    14.939498   -186.35217    435.50516    23.504568    22.159392   0.28502217    435.79018   -1901.8857 
    8500   -102746.98   -93182.835     232.2527    20724    226674.03   -55.251305      66.4703   -252.87559    20.651375    435.04728    23.508768    22.163352   0.51396168    435.56124   -1905.4128 
    8600   -102694.31   -93151.253    231.74079    20724    226839.13    -30.79789    97.644461   -179.68624   -10.351889    435.45851    23.506221     22.16095   0.30834253    435.76686     -1933.72 
    8700   -102691.67   -93148.772    231.73686    20724    226777.82    36.422917    29.726913    249.17128   -169.62944     435.5563    23.500406    22.155468   0.25944959    435.81575   -1941.6841 
    8800   -102762.21   -93124.604    234.03673    20724    226793.18   -73.432643    14.482201     125.9184   -360.69852    435.70583    23.497168    22.152416   0.18468587    435.89051   -1961.2836 
    8900   -102713.24   -93120.239    232.95357    20724    226784.59   -2.4486818    -39.84024     -103.949     136.4432      435.472     23.50303    22.157943   0.30159905     435.7736   -1969.7839 
    9000   -102660.68   -93122.176     231.6302    20724     226829.2     38.88296    10.976358    292.27334   -186.60082    435.53127    23.503743    22.158614   0.27196689    435.80323   -1969.8459 
    9100   -102697.87   -93104.119    232.97178    20724     226917.2   -8.8678088    8.1678186    178.47451   -213.24576    435.56142    23.507488    22.162145   0.25689041    435.81831   -1985.8283 
    9200   -102684.02    -93092.94    232.90695    20724    226960.91    30.199889   -36.502654    170.50002   -43.397697    435.58406    23.509141    22.163703   0.24556828    435.82963   -1997.4943 
    9300   -102682.56   -93085.168    233.06008    20724    226956.25    29.013342    29.830311    -209.4218    266.63152    435.66497    23.506716    22.161418   0.20511504    435.87008   -2007.0447 
    9400   -102690.12   -93067.087    233.68273    20724    226932.83    -94.83156    7.7208943   -197.76535   -94.450224    435.60688    23.507071    22.161752   0.23415803    435.84104   -2020.7022 
    9500   -102711.11   -93075.423    233.99019    20724    226982.73    18.516031   -153.78039    275.51719   -66.188706    435.64536    23.508617    22.163209   0.21492162    435.86028    -2017.373 
    9600   -102655.14   -93052.305    233.19224    20724    226816.54    20.812054    79.154486    187.66376   -204.38208     435.6314    23.500386    22.155449   0.22190182     435.8533   -2045.4603 
    9700   -102658.25   -93019.433    234.06607    20724    226878.97    45.780736    6.6090394    51.424615    79.308554    435.57876     23.50504    22.159837   0.24822104    435.82698   -2079.4969 
    9800   -102626.53   -92998.742    233.79822    20724    226902.06     49.01705    118.08968   -125.51271    154.47418    435.49445    23.508511    22.163109   0.29037252    435.78483    -2099.959 
    9900    -102670.2    -93015.78    234.44501    20724    226933.15   -60.124327   -120.99718   -166.07871    106.70291    435.72149    23.503996    22.158853   0.17685446    435.89835   -2078.2438 
   10000   -102606.27   -92969.619    234.01362    20724    226910.65   -19.188253   -79.477518   -332.69643    354.60919    435.51451    23.508415    22.163019   0.28034674    435.79485   -2128.5657 
   10100    -102659.7   -92996.536     234.6573    20724     226861.4   -20.587926    151.94068   -107.81296    -105.8915    435.61789    23.503074    22.157983   0.22865526    435.84654   -2104.2882 
   10200   -102568.56   -92990.584    232.58871    20724    226853.79    67.396749   -47.903209    227.95535    22.138105    435.53344    23.504958     22.15976   0.27087834    435.80432   -2112.3235 
   10300   -102705.81   -92945.744     237.0104    20724    226848.72   -1.7343542    179.04269    -17.76573   -166.48003    435.57478     23.50358    22.158461   0.25021054    435.82499   -2159.1081 
   10400    -102636.9   -92976.647    234.58665    20724    226877.49    33.188761   -58.429702    170.02878   -12.032791    435.58257     23.50486    22.159667   0.24631428    435.82889   -2129.9661 
   10500   -102639.39    -92964.94     234.9315    20724    226674.47   -33.092295    99.979998   -37.899384    -161.3575    435.49699     23.49665    22.151927     0.289105    435.78609   -2144.3087 
   10600   -102568.89   -92953.402    233.49968    20724     226788.6     23.83089  0.090065741   -128.87177    200.27437    435.37556    23.505841    22.160593   0.34982105    435.72538   -2155.7621 
   10700    -102623.3   -92910.001    235.87491    20724    226926.31    30.325516    95.990909   -111.56928    106.55492    435.40504    23.512181     22.16657   0.33507961    435.74012    -2196.403 
   10800   -102704.56   -92953.248    236.79801    20724    226837.74    15.316981    131.58134    257.55941    -343.1898    435.32591    23.509728    22.164257   0.37464327    435.70056   -2158.3615 
   10900   -102698.95   -92899.514    237.96648    20724    226827.08   -94.701562   -188.48793   -110.73025    15.113495    435.47958    23.505028    22.159826   0.29780961    435.77739   -2207.2625 
   11000   -102621.66   -92881.581    236.52515    20724    226780.38   -29.196888    188.50827   -127.33483   -148.76411    435.34086    23.506352    22.161074   0.36716771    435.70803   -2231.9017 
   11100   -102558.94   -92892.555    234.73549    20724    226816.57    8.5621436    125.67458    70.180647    -170.1688    435.21832    23.511537    22.165962   0.42844058    435.64676   -2221.4375 
   11200    -102624.1    -92868.03    236.91336    20724    226858.31   0.23287391    85.847767     9.883534   -95.032679    435.41242    23.508459     22.16306   0.33138795    435.74381    -2247.356 
   11300   -102565.01   -92864.632    235.56096    20724    226865.78   -41.755106   -84.187393   -136.20847    95.130547    435.50716    23.506289    22.161014   0.28402146    435.79118   -2247.4553 
   11400   -102568.76    -92830.64     236.4775    20724    227028.66    2.5484953   -63.500497     112.0069   -40.860916    435.46315    23.515913    22.170088   0.30602552    435.76917   -2281.0207 
   11500   -102550.71   -92864.876     235.2079    20724    226905.33    4.6142365   -48.864521    50.996011    11.711219    435.43281    23.510344    22.164838   0.32119735      435.754   -2252.5302 
   11600   -102658.29   -92846.245    238.27262    20724    226999.77   -10.576636   -152.81979   -158.03363    279.12351    435.63554    23.509764    22.164291   0.21983215    435.85537   -2269.1584 
   11700   -102522.75   -92798.348    236.14447    20724    226937.58    -105.1176   -398.17879   -153.99517    236.82116    435.47249    23.510944    22.165403   0.30135672    435.77384   -2312.6589 
   11800   -102580.34   -92795.123    237.62115    20724    227042.38    51.305572    185.83987     115.1384   -147.06155     435.4576    23.516774      22.1709    0.3088004     435.7664   -2323.2716 
   11900   -102518.38   -92789.826    236.24535    20724    226876.36    2.2516713    109.49341    53.328653   -156.06704    435.46536    23.507965    22.162595   0.30492176    435.77028   -2332.1399 
   12000   -102550.65    -92772.35    237.45324    20724    226867.05    10.633636    130.88015   -66.684582   -32.294655    435.65249    23.502433    22.157379   0.21135376    435.86385   -2351.4573 
   12100   -102538.92   -92746.792    237.78907    20724    227055.79    19.298224    91.919203    110.82348   -144.84801    435.50034    23.516314    22.170466   0.28742844    435.78777   -2375.0351 
   12200    -102413.6   -92778.753    233.96977    20724    226812.74    19.265672   -211.84304    165.01142    104.62863    435.33604    23.508159    22.162778   0.36957874    435.70562    -2349.335 
   12300   -102535.46   -92746.835    237.70412    20724    227195.72   -123.93719    -213.2585   -228.78762    70.234538    435.44291    23.525111    22.178759   0.31614295    435.75906   -2366.8923 
   12400   -102491.64   -92775.219    235.95051    20724    226834.03   -17.473604    39.047598   -141.18398     49.71557    435.30962    23.509976    22.164491   0.38279157    435.69241   -2355.2377 
   12500   -102554.25    -92752.29    238.02776    20724    227053.29    3.4635728   -199.17624   -184.77022    394.33718    435.37271    23.519632    22.173594    0.3512464    435.72395   -2375.6376 
   12600   -102457.59    -92721.32    236.43271    20724    226932.65    -54.60731   -99.485069    45.526395   -109.86326    435.46809    23.510807    22.165274   0.30355506    435.77164   -2407.5915 
   12700   -102505.62   -92715.644    237.73678    20724    226812.35   -48.280161   -15.156369      110.051   -239.73511    435.22171    23.511226     22.16567   0.42674274    435.64846   -2419.6132 
   12800   -102439.68   -92680.113    236.99842    20724    226914.84    78.996943    49.460229    165.56791    21.962693    435.30317    23.514338    22.168603   0.38601693    435.68918   -2455.5923 
   12900   -102531.46   -92693.578    238.90023    20724    226834.71   -71.047156   -61.902828   -59.194474   -92.044165    435.36466    23.508525    22.163123   0.35527033    435.71993   -2440.5667 
   13000   -102468.15   -92667.368    237.99916    20724    227094.66    -81.46173    123.89424   -215.36498   -152.91445    435.48038    23.518866    22.172872   0.29741151    435.77779    -2459.631 
   13100   -102435.19   -92701.476    236.37064    20724    226882.86    -49.56584   -119.59034   -60.494728    31.387553    435.45494    23.508583    22.163177   0.31013138    435.76507   -2433.8722 
   13200   -102415.75   -92667.206    236.73061    20724    227019.57   -3.9108698    -220.3226    270.62422   -62.034234    435.46277    23.515453    22.169654   0.30621388    435.76899    -2468.392 
   13300   -102471.06   -92685.254    237.63563    20724    226861.05    79.242192    131.78261   -64.738846    170.68281    435.25184    23.512937    22.167282   0.41168003    435.66352   -2461.7191 
   13400   -102456.99   -92641.655    238.35273    20724    226901.25   0.32471565   -15.317101   -92.524024    108.81527    435.46273    23.509325    22.163877   0.30623412    435.76897   -2498.7747 
   13500   -102398.35   -92655.669    236.58821    20724    226845.93    51.411647    159.73666    -58.42077    52.919047    435.19745    23.513623    22.167929   0.43887618    435.63632   -2489.5577 
   13600   -102470.57   -92636.698    238.80267    20724    226876.64   -20.986786   -22.121441    12.154193    -52.99311     435.2715    23.513214    22.167543   0.40185176    435.67335   -2506.1078 
   13700   -102299.17   -92584.962    235.89686    20724    226720.23    41.277686    11.971023    123.31626   -11.454226    435.43109    23.500799    22.155839   0.32205423    435.75315   -2565.6235 
   13800   -102417.84     -92606.3    238.26052    20724    226908.62    48.447918   -123.74512   -95.043587    364.13246    435.21294    23.516453    22.170597   0.43113023    435.64407   -2541.9023 
   13900   -102303.26   -92573.542    236.27358    20724    226930.14    57.272866    194.84608   -12.848007   -10.179475    435.31461    23.514821    22.169059   0.38029656     435.6949   -2573.7953 
   14000   -102368.48   -92591.065    237.43191    20724    226832.15    19.603499    185.64758    1.4065029   -128.24358    435.38859    23.507746    22.162389   0.34330494     435.7319   -2560.7652 
   14100   -102408.01   -92611.489    237.89576    20724     227023.4   -2.8750814    199.32098   -13.632602   -194.31363    435.42172     23.51676    22.170886   0.32674017    435.74846   -2535.2317 
   14200   -102338.17   -92572.197    237.15395    20724    226859.21   -54.440893   -5.6394212    17.974603   -175.65786    435.37607    23.509487    22.164029   0.34956408    435.72564   -2577.4258 
   14300   -102363.39   -92548.311     238.3465    20724    227099.03    26.453569    -165.5206     59.21587    185.66544    435.76847    23.511317    22.165755   0.15336631    435.92183   -2598.2482 
   14400   -102312.33   -92560.053    236.82133    20724    226843.05     10.90747    1.5045635    200.32847   -169.11063    435.66729    23.500791    22.155831   0.20395502    435.87124   -2594.7239 
   14500   -102293.25   -92520.918    237.30831    20724    226998.75    1.8979126    68.206346    9.9457492   -72.458357    435.62151     23.51009    22.164598    0.2268436    435.84836   -2628.6398 
   14600   -102289.43   -92450.028    238.93706    20724    226870.03   -15.320619   -109.32336    44.594125    18.767379    435.52386    23.506058    22.160797   0.27566829    435.79953   -2704.2878 
   14700   -102152.03   -92446.428     235.6878    20724     226804.6      68.6848    25.360616    5.4412636    175.25252    435.52072    23.502753    22.157681   0.27723939    435.79796   -2713.5504 
   14800   -102311.45   -92439.949    239.71663    20724    226845.94    69.984769   -132.52677    235.53643    106.94465    435.59574     23.50287    22.157792   0.23972838    435.83547   -2719.3055 
   14900   -102247.85   -92417.417    238.71918    20724    226836.35  -0.59398072    99.513834   -122.68715    21.391373    435.42668    23.506936    22.161624   0.32426197    435.75094   -2740.4245 
   15000   -102210.56   -92414.888    237.87512    20724    226928.32    88.729796    75.590877   0.30240458    190.29611    435.58088    23.507539    22.162193   0.24716243    435.82804    -2744.801 
   15100   -102314.01   -92422.919    240.19229    20724    226937.79   -25.882036   -12.841127   -145.13815    80.333165    435.47592    23.510862    22.165326   0.29964107    435.77556   -2736.0738 
   15200   -102289.02   -92372.977    240.79815    20724    226918.78   -47.937572   -121.87851    17.256538    -39.19074    435.55535    23.507734    22.162377   0.25992614    435.81527   -2783.2062 
   15300   -102140.56   -92330.113    238.23384    20724    226988.86     8.735944    76.844598    94.207942   -144.84471    435.29378    23.518426    22.172457   0.39070959    435.68449   -2828.7328 
   15400   -102214.25    -92343.58    239.69636    20724    226861.58     13.94506    207.17338    120.10995   -285.44815    435.60326    23.503478    22.158364   0.23596871    435.83923   -2819.1687 
   15500   -102279.95   -92370.174    240.64599    20724    226694.45   -75.541445    -17.17836   -74.820351   -134.62562     435.3782    23.500891    22.155925    0.3485023     435.7267   -2795.8806 
   15600   -102194.82    -92312.29    239.98443    20724    226662.82   -71.307643   -13.643436    6.1183937   -206.39789    435.20972    23.503799    22.158667   0.43273858    435.64246   -2854.1879 
   15700    -102180.2   -92323.384    239.35984    20724    226673.96   -76.539718   -57.080348   -222.81969    50.280883    435.26374    23.502918    22.157837   0.40572847    435.66947   -2844.6802 
   15800   -102201.42   -92311.262    240.16966    20724    226718.88   -72.585446   -214.44076   -89.651226    86.335652    435.46481     23.49982    22.154916   0.30519641       435.77   -2856.4689 
   15900   -102065.39   -92259.337    238.12712    20724    226572.67   -19.212981    74.411741   -216.96196    84.911274    435.36232    23.495006    22.150377   0.35644075    435.71876   -2914.1971 
   16000   -102105.19   -92244.415    239.45617    20724    226605.21    7.2081521   -64.134145    93.719638    -7.961036    435.33814    23.497346    22.152583   0.36853156    435.70667   -2930.8206 
   16100   -102120.96   -92261.715    239.41893    20724     226523.9    -13.27865    7.0770111   -30.706843    -16.20612    435.27311    23.494884    22.150263   0.40104251    435.67416   -2915.2823 
   16200   -102068.83   -92249.231    238.45611    20724    226602.22    47.122253    39.157597   -4.5002676    106.70943    435.28745    23.498559    22.153727   0.39387456    435.68133   -2927.8516 
   16300   -102113.01   -92215.867    240.33933    20724     226306.9   -135.90291    14.481435   -128.03203   -294.15815    435.15149    23.486909    22.142744   0.46185287    435.61335    -2964.197 
   16400    -102150.9   -92240.455    240.66221    20724    226567.59    5.4166671   -44.992874   -35.697013    96.939889    435.10588    23.501665    22.156655   0.48465886    435.59054   -2940.1416 
   16500   -102010.44   -92217.865    237.79994    20724    226538.03    62.657686   -42.114469    353.07338   -122.98585    434.95466    23.504216    22.159061   0.56026825    435.51493   -2966.5562 
   16600   -101981.09   -92210.623    237.26304    20724    226280.46    7.0287673    142.19025   -96.855412   -24.248539    434.92835    23.491562     22.14713    0.5734269    435.50177   -2977.8623 
   16700   -102099.46    -92207.14    240.22215    20724    226460.21   -16.564408    42.991028   -38.346205   -54.338047    435.08584    23.496636    22.151914   0.49467767    435.58052   -2979.5421 
   16800   -102130.41   -92192.062    241.33982    20724    226318.61   -32.036423   -136.05257    56.829745   -16.886448    434.79817    23.497059    22.152312   0.63851741    435.43668   -2996.4626 
   16900   -102035.81    -92208.74    238.63762    20724    226298.27   -17.076379    136.17869   -372.64037    185.23255    434.74429    23.497458    22.152689   0.66545498    435.40975   -2981.4419 
   17000   -101959.65   -92168.473    237.76589    20724    226429.29    29.210407     54.36119    135.43931   -102.16928    434.89302     23.50024    22.155312   0.59108774    435.48411    -3019.718 
   17100   -102047.15   -92161.729    240.05453    20724    226495.76    20.621766    16.337997   -14.352251    59.879553    434.87248    23.504244    22.159087   0.60135953    435.47384   -3026.3527 
   17200   -102022.95   -92142.251    239.93978    20724    226311.47   -58.607653   -32.836219    132.92336    -275.9101    434.75799    23.497773    22.152986   0.65860461     435.4166   -3048.4403 
   17300   -101959.63   -92135.955     238.5552    20724    226314.55    24.820663    340.73335   -322.58819    56.316829     434.8978    23.494156    22.149576   0.58870099     435.4865   -3058.0982 
   17400   -101997.18   -92166.717    238.72011    20724    226475.31    37.482235   -282.06893    263.34922    131.16642    434.84234    23.503998    22.158855   0.61642966    435.45877   -3026.0534 
   17500   -101924.14   -92110.834    238.30325    20724    226492.94    35.193592   -13.775848   -1.5486738     120.9053    434.97045    23.501451    22.156454   0.55237543    435.52282   -3081.7661 
   17600   -101944.06   -92148.136    237.88132    20724    226164.47    50.573759    37.207608   -149.97649    264.49015    434.56563    23.495339    22.150691   0.75478352    435.32042   -3056.6832 
   17700   -101979.59   -92118.308    239.46842    20724    226239.69   -43.431468   -29.325468   -186.86382    85.894885    434.63805    23.497288    22.152529   0.71857351    435.35663    -3080.531 
   17800   -102010.53   -92120.839    240.15821    20724    226354.19   -38.368382   -165.00912    108.81949   -58.915513    434.88903     23.49645    22.151739    0.5930827    435.48212   -3077.0762 
   17900   -102013.85   -92148.049    239.57809    20724    226403.42    7.2649656   -33.535588    70.738306   -15.407821    434.74256    23.502964     22.15788   0.66631831    435.40888   -3050.2793 
   18000   -101988.66   -92168.053    238.48056    20724    226304.78   -59.210505    17.955218    100.18923   -295.77596    434.67347    23.499711    22.154813   0.70086486    435.37434   -3031.6492 
   18100   -102010.41   -92142.917     239.6192    20724    226307.67    28.118518    179.86798    62.615982   -158.12841    434.55294    23.503119    22.158026   0.76112843    435.31407   -3059.5296 
   18200   -102046.59   -92111.362      241.264    20724    226326.14   -128.22655   -121.98986   -347.86568    85.175869    434.43749    23.507201    22.161875   0.81885352    435.25635   -3087.8429 
   18300   -102058.94     -92140.4    240.85875    20724    226340.81    81.795089    164.60747    122.91173   -42.133942    434.55048    23.504907    22.159711   0.76236091    435.31284   -3068.2245 
   18400   -101933.46   -92103.007    238.71982    20724     226217.4   -34.597252    -137.6521    109.66497   -75.804627    434.39521    23.502697    22.157629   0.83999464    435.23521   -3103.7921 
   18500   -102037.46   -92124.483    240.72375    20724    226225.64   -5.8962338    23.935763    179.24699   -220.87145    434.46964    23.501112    22.156134   0.80277863    435.27242   -3087.6991 
   18600   -101959.83   -92096.848    239.50971    20724    226158.25   -47.376649    -55.30768   -19.290839   -67.531428    434.38183    23.499986    22.155073    0.8466855    435.22851   -3114.3806 
   18700   -101945.21   -92103.347    238.99684    20724    226276.99    52.627515   -19.076523    37.331235    139.62783    434.33798    23.507341    22.162007   0.86861225    435.20659   -3109.1271 
   18800   -101908.66   -92115.173    237.82205    20724    226299.27    40.998375    70.556273   -36.932889    89.371742    434.61133    23.501104    22.156127   0.73193603    435.34326   -3097.2961 
   18900    -101896.3   -92061.484    238.82569    20724    226191.08   -23.298657   -189.47497    148.48656    -28.90756    434.20226    23.506551    22.161262   0.93646927    435.13873   -3151.8804 
   19000   -101862.61   -92065.694    237.90537    20724    226065.89   -14.327239   -33.533645   -24.028679    14.580607    434.20615     23.49994    22.155029   0.93452401    435.14068   -3151.9067 
   19100   -101899.18    -92025.68    239.76502    20724    226229.05    16.716632   -75.436707   -110.06489    235.65149    434.18351    23.509031      22.1636   0.94584368    435.12936   -3191.3087 
   19200   -101879.64   -92025.879    239.28582    20724     226257.6    20.079119   -100.37875   -134.56333    295.17944    434.47226    23.502701    22.157632   0.80147052    435.27373   -3192.7336 
   19300   -101939.14   -92051.131    240.11751    20724     226213.9   -89.038137   -124.14682    10.533775   -153.50136    434.19686    23.507883    22.162517   0.93916853    435.13603    -3163.779 
   19400   -101945.58   -92072.705       239.75    20724    226159.18    41.328033    122.50062   -15.264611    16.748088    434.17199    23.505713    22.160471   0.95160573    435.12359   -3151.2343 
   19500   -101969.08   -92037.181    241.18324    20724    226358.98   -7.5935218   -249.69122    183.47072    43.439935    434.25391    23.513875    22.168167   0.91064588    435.16455   -3180.8072 
   19600   -101851.54   -92026.913    238.57823    20724    226091.23   -50.534727    56.525747    78.946216   -287.07614    433.98032    23.507371    22.162035    1.0474397    435.02776   -3197.0027 
   19700    -101903.7   -92018.388    240.05201    20724    226262.86   -33.981012   -110.47109   -7.2458989    15.773955    434.08838    23.513364    22.167685   0.99340965    435.08179   -3202.8704 
   19800   -101902.52   -92003.066    240.39529    20724    226356.67   -9.0698746    78.573095    77.846393   -183.62911    434.22381     23.51457    22.168822   0.92569703     435.1495   -3219.1337 
   19900   -101897.76    -92009.47    240.12416    20724    226135.13   -57.842028   -137.45173    59.125464   -95.199821    434.03217    23.508248    22.162862    1.0215131    435.05369   -3217.5238 
   20000      -101843   -91989.531    239.27873    20724    226038.76    58.883603   -4.8019322    163.36916    18.083579    434.15433    23.499932    22.155022   0.96043438    435.11477   -3246.5691 
   20100   -101862.19   -91939.567    240.95787    20724    226250.44   -10.559806    23.341662    159.52173   -214.54281    434.33755    23.505974    22.160717   0.86882502    435.20637   -3287.7177 
   20200   -101856.74   -91946.436     240.6588    20724    226238.15   -102.69022   -194.76207    -58.59132   -54.717275    434.24311    23.507891    22.162525   0.91604332    435.15916   -3279.7516 
   20300    -101879.4   -91889.022    242.60321    20724     226343.7   -26.751298   -256.27209    57.669331    118.34886    434.38274    23.509595    22.164131   0.84623218    435.22897   -3338.2112 
   20400   -101941.69   -91879.929     244.3367    20724    226258.43   -114.38691    73.486325   -362.86034   -53.786721    434.30092     23.50738    22.162043   0.88714003    435.18806   -3348.3217 
   20500   -101671.95   -91808.336    239.52509    20724    226396.77    115.71034   -7.7888315    129.70749    225.21238     434.3382    23.513556    22.167866   0.86849865     435.2067   -3424.7624 
   20600   -101832.27   -91808.522    243.41369    20724     226352.1   -27.051773    88.195782   -124.24116   -45.109937    434.35004    23.510916    22.165377   0.86257823    435.21262   -3420.5031 
   20700   -101616.94   -91756.479    239.44849    20724    226396.74    6.7011529    144.47525   -50.133409   -74.238381     434.5486    23.507862    22.162497    0.7633014     435.3119   -3472.7563 
   20800   -101648.36   -91761.181    240.09718    20724    226364.53 -0.056266471   -94.354081   -62.283598    156.46888    434.34866    23.511599    22.166021   0.86327182    435.21193   -3469.3281 
   20900   -101717.23   -91730.432    242.51649    20724    226414.74   -66.684426    -31.19012    148.82923   -317.69239    434.48609    23.510487    22.164972   0.79455344    435.28065   -3497.7187 
   21000   -101784.39   -91755.264    243.54421    20724    226369.99   -12.239576   -64.908103    333.85681   -305.66744    434.32148    23.512618    22.166982   0.87686237    435.19834   -3478.1032 
   21100   -101675.66   -91736.237    241.36588    20724    226121.07    43.995591    194.20491    73.038076   -135.25621    434.03358     23.50748    22.162137    1.0208107    435.05439   -3505.0706 
   21200   -101689.36   -91732.648    241.78591    20724    226297.35   -41.730865   -34.778541    162.24038   -252.65443    434.46288    23.505019    22.159817   0.80615825    435.26904   -3502.5187 
   21300   -101759.81   -91717.762    243.85816    20724    226457.45   -21.454725   -96.326632   -131.23552    163.19798    434.63385    23.508707    22.163295   0.72067719    435.35452   -3515.6552 
   21400   -101652.67   -91703.434    241.60436    20724     226369.6    102.05549   -14.074117    93.366605    226.87398    434.36044    23.511543    22.165968   0.85738038    435.21782   -3537.9564 
   21500   -101680.98   -91712.898    242.06178    20724    226341.76   -37.156327   -145.19618    26.706004    7.0211995    434.54376    23.505138    22.159929   0.76571845    435.30948   -3523.8184 
   21600    -101669.8   -91711.238     241.8307    20724    226500.45   -15.158736    -32.30424   -294.07159    280.89963    434.81766    23.505969    22.160713   0.62876969    435.44643   -3524.0216 
   21700   -101643.71    -91669.36    242.21422    20724    226480.78    20.557543   -29.865058   -51.244927    142.78261    434.53899    23.512484    22.166855   0.76810614    435.30709   -3568.5913 
   21800   -101638.61   -91676.926    241.90643    20724    226259.05   -25.658201   -194.41255    153.52393   -36.085981     434.2535    23.508695    22.163283   0.91085078    435.16435   -3566.9165 
   21900   -101597.41   -91672.738    241.00771    20724    226273.54    57.529743    -106.4169     2.875348    276.13078    434.25556    23.509393    22.163941   0.90981969    435.16538   -3576.2188 
   22000   -101650.39   -91680.929    242.09542    20724    225957.47    26.166923    70.100113   -117.63325    126.03391    433.90659    23.502413     22.15736    1.0843067    434.99089   -3579.3032 
   22100   -101608.32   -91634.306    242.20594    20724    226200.89 -0.029303038   -67.648663    161.05596   -93.495204    433.88996    23.515519    22.169716    1.0926182    434.98258   -3618.1923 
   22200   -101620.67   -91654.461    242.01648    20724    225970.41    58.711965   -21.551076    179.59665    18.090325    433.85377    23.504516    22.159343    1.1107165    434.96448   -3607.8748 
   22300   -101541.15   -91625.239    240.79499    20724    226303.37    120.86215       148.93   -26.117771    239.77422    433.89247    23.520777    22.174674    1.0913636    434.98384   -3632.1677 
   22400   -101492.08    -91623.82    239.63787    20724    226029.05   -21.018926    52.788879   -21.440143   -94.405513    433.87787    23.506913    22.161603    1.0986661    434.97653   -3636.1144 
   22500   -101606.01   -91630.644    242.23888    20724    226216.18    24.183939    36.372994    167.15508   -130.97626    434.37037    23.503306    22.158202   0.85241428    435.22279   -3627.3748 
   22600   -101499.04   -91654.877    239.05275    20724    226044.44    27.721409      188.023   -87.522898   -17.335874    433.89638    23.507212    22.161884    1.0894108    434.98579   -3608.4476 
   22700   -101664.32   -91578.351     244.9245    20724    226279.22   -69.698095   -178.27155   -34.540968    3.7182372    434.11445    23.513508    22.167821   0.98037399    435.09483   -3676.3067 
   22800    -101522.8   -91589.049    241.22811    20724    226230.45    80.240193   -55.878954    251.83154    44.767991     434.2002    23.508652    22.163243   0.93749804     435.1377   -3675.2317 
   22900   -101570.33   -91596.943    242.19071    20724    226242.36     -41.3576    88.600089    132.10396   -344.77685    434.22999    23.508465    22.163066     0.922607    435.15259   -3662.4419 
   23000   -101633.91   -91602.062    243.61034    20724    226121.88   -63.825335   -115.50463   -132.99467    57.023292    434.02619    23.507722    22.162365    1.0245051    435.05069   -3660.1459 
   23100   -101535.45   -91600.529    241.25671    20724    226211.89   -67.781414    67.385015   -254.35589   -16.373362    434.08316    23.510857    22.165321   0.99602223    435.07918   -3660.6286 
   23200    -101491.5   -91594.717     240.3305    20724    226219.23    69.872183    110.40093   -194.69218     293.9078    434.10644    23.510608    22.165087    0.9843807    435.09082   -3673.8605 
   23300   -101567.98   -91580.833    242.52478    20724    226190.05   -25.145172    48.064152   -182.28128     58.78161    434.10185    23.509216    22.163774   0.98667299    435.08853   -3685.6048 
   23400   -101589.58   -91623.696    242.00845    20724    226129.48    81.777175    -69.26034    332.45276   -17.860891    434.11363    23.505749    22.160506   0.98078524    435.09441   -3650.5195 
   23500    -101628.1   -91563.881    244.39654    20724    226171.24   -28.542267    97.995905   -32.499161   -151.12355    433.95226     23.51229    22.166672    1.0614692    435.01373    -3705.363 
   23600    -101553.7   -91575.372    242.31061    20724     226373.3    56.792628    169.86395    180.38068   -179.86674    434.05439    23.520023    22.173963    1.0104074    435.06479   -3695.0456 
   23700   -101584.27   -91563.016    243.35309    20724    226138.81   -1.1754139   -33.991962   -82.327826    112.79355    433.84946    23.513389    22.167709    1.1128698    434.96233   -3710.4745 
   23800   -101470.28    -91548.08    240.94762    20724    226323.04    35.613249    177.79255    -173.2307     102.2779    433.80262    23.524235    22.177934    1.1362893    434.93891   -3723.9066 
   23900   -101506.52   -91553.327     241.7004    20724    226189.26    31.258142   -178.50402    56.177839     216.1006    433.78245    23.517828    22.171894    1.1463769    434.92882   -3722.2687 
   24000   -101595.58   -91556.182     243.7937    20724     226026.8    1.3532616  -0.83064475   -57.466891     62.35732    433.57992    23.514871    22.169106    1.2476378    434.82756   -3724.4704 
   24100   -101547.33   -91561.881    242.48357    20724    226114.78    17.420568    -72.57932    66.240584    58.600441    433.69214    23.516404    22.170551    1.1915284    434.88367   -3719.2267 
   24200   -101441.15   -91517.776     240.9761    20724    226063.68   -19.420629   -49.993631   -60.428762    52.160506    433.45899     23.52007    22.174007    1.3081042     434.7671     -3761.58 
   24300   -101468.16   -91529.259    241.35319    20724    226299.86    103.74363    125.01307   -118.67817    304.89598    433.70788      23.5256     22.17922    1.1836605    434.89154   -3750.7409 
   24400   -101516.87   -91560.257    241.78345    20724    226030.95    33.353064    12.839731    146.04038   -58.820918    433.51465    23.516857    22.170978    1.2802745    434.79493   -3725.2502 
   24500   -101541.75   -91508.603    243.64179    20724    226229.68    9.2126682   -43.732186    65.602818    5.7673723    433.72677    23.521439    22.175298    1.1742149    434.90099   -3770.2159 
   24600   -101555.84    -91540.93      243.199    20724    226051.12   -61.747974   -58.302652    152.00235   -278.94361     433.7546      23.5114    22.165834    1.1602997     434.9149   -3743.1087 
   24700   -101619.27   -91547.743    244.57387    20724    226146.76    35.330136    79.365016    225.19146   -198.56607    433.87416    23.513133    22.167467    1.1005195    434.97468   -3739.9339 
   24800   -101443.21    -91516.04    241.06838    20724    225898.85    35.639957    67.378554   -267.61684    307.15815    433.67247    23.505706    22.160465    1.2013661    434.87383   -3778.4145 
   24900   -101477.06   -91505.206    242.15349    20724    226298.29    43.732495    14.088996    296.01494   -178.90645    434.17043    23.512983    22.167325   0.95238398    435.12282   -3778.8526 
   25000   -101568.01   -91541.296    243.48564    20724    226102.05    23.749245   -15.397107   -67.230246    153.87509    433.87141    23.510884    22.165346    1.1018954     434.9733   -3750.6728 
   25100   -101498.02   -91505.261    242.66113    20724    226216.74    37.671304    134.13536     19.85853   -40.979977    433.93647    23.515083    22.169305    1.0693641    435.00584   -3784.2368 
   25200   -101525.44   -91499.599    243.46444    20724    226012.38    69.451044    113.03864    38.799096    56.515393    433.84173    23.507025    22.161708     1.116736    434.95846    -3799.948 
   25300   -101425.74   -91505.654     240.8965    20724    225911.41   -24.546458   -88.411003    37.756675   -22.985045    433.59976     23.50833    22.162939    1.2377176    434.83748   -3790.2836 
   25400   -101478.73   -91489.092    242.58524    20724    226158.58    89.189228    109.95068    224.82703   -67.210027    433.64293    23.520016    22.173956    1.2161372    434.85906   -3809.1811 
   25500   -101599.08   -91510.042    244.99913    20724    225995.57   -56.861199   -216.54263   -128.88232    174.84136    433.84418    23.506084    22.160822    1.1155075    434.95969   -3787.8033 
   25600   -101499.69   -91496.075    242.92482    20724    225972.31   -1.1692905    86.864494    4.2235372   -94.595903    433.56289    23.512499    22.166869    1.2561558    434.81904   -3806.4036 
   25700   -101615.55   -91497.521    245.70305    20724    226000.87   -88.733184      61.5479    -164.9017   -162.84575    433.56396    23.513955    22.168242    1.2556211    434.81958   -3799.9249 
   25800   -101554.24    -91473.38     244.8006    20724    225951.24   -8.5020055    26.942423    201.96905   -254.41749    433.55177    23.511703    22.166119    1.2617144    434.81349   -3830.1999 
   25900   -101529.16   -91463.575    244.42969    20724    226021.25   -33.610473    21.572424    110.23066    -232.6345    433.51427    23.516363    22.170512    1.2804644    434.79474    -3837.718 
   26000   -101454.18    -91410.89     243.8882    20724    226012.93    18.936501    3.0362642    71.998869   -18.225629    433.41396    23.518651    22.172669    1.3306213    434.74458   -3892.8022 
   26100    -101482.7   -91410.288    244.59546    20724    226029.93   -9.8951153     58.67524     64.72118   -153.08177    433.51651    23.516754    22.170881    1.2793474    434.79585   -3892.3773 
   26200   -101462.89   -91410.891    244.09976    20724    225966.65   -66.518461   -64.165331     16.48517   -151.87522    433.75618    23.506964    22.161651    1.1595085    434.91569    -3892.245 
   26300   -101558.31   -91463.461    245.14029    20724    226005.19   -16.717225    80.542256   -279.43404     148.7401    433.92389    23.504426    22.159258    1.0756549    434.99955   -3842.6344 
   26400   -101550.12   -91420.778    245.97798    20724    226078.97    59.154547    65.205516    49.411586    62.846539    433.88932    23.509198    22.163757    1.0929387    434.98226   -3888.0037 
   26500   -101426.04   -91390.729    243.69447    20724    226124.21   -33.551624    44.454573   -151.00269    5.8932414    433.81561    23.513548    22.167858     1.129793    434.94541   -3912.2137 
   26600   -101493.18   -91434.627    244.25876    20724    226010.49    93.857419      85.3591   -56.627046     252.8402    433.62617    23.512769    22.167124    1.2245172    434.85068   -3878.6061 
   26700   -101437.28   -91404.968    243.62168    20724    226232.99    54.188896    72.112411    182.28195    -91.82767    433.74344    23.521159    22.175034    1.1658812    434.90932   -3899.6357 
   26800    -101378.3   -91338.222    243.81021    20724     226015.7   -6.2674507    183.05297   -51.446927    -150.4084    433.84392    23.507138    22.161815     1.115642    434.95956   -3970.4574 
   26900   -101397.47   -91353.302    243.90947    20724    226138.01   -101.98648    -160.3802   -301.28049    155.70125    433.88775     23.51231    22.166692    1.0937272    434.98147   -3948.9746 
   27000   -101427.82   -91348.627    244.76015    20724    226082.32   -30.170337   -313.71203    3.3000143      219.901    433.91981    23.508546    22.163143    1.0776948    434.99751   -3959.9057 
   27100    -101377.1   -91353.752    243.40383    20724    226110.08    76.280386    51.832289     200.1021   -23.093233    433.80015    23.513232     22.16756    1.1375244    434.93768   -3960.4099 
   27200   -101390.62   -91406.649    242.44767    20724    225932.11    39.838697    169.19924   -84.815829     35.13268    433.43561    23.513858    22.168151    1.3197938    434.75541   -3911.8225 
   27300   -101461.56   -91422.527    243.78492    20724    226050.43   -36.032597   -147.95533    171.23285   -131.37531    433.51714    23.517803     22.17187     1.279032    434.79617   -3891.1184 
   27400   -101390.36   -91387.332    242.91042    20724    226120.99   -8.7790728    66.986497   -138.43914    45.115421     433.5867    23.519586    22.173551    1.2442522    434.83095   -3924.6194 
   27500    -101413.6   -91402.939    243.09592    20724    225837.21    28.464793    305.87741    14.158318   -234.64135    433.67655    23.502388    22.157337    1.1993236    434.87588    -3921.562 
   27600   -101451.03   -91370.848    244.78401    20724    225995.69    25.987835   -323.54524   -84.689788    486.19853    433.70032    23.509989    22.164503    1.1874413    434.88776   -3951.5223 
   27700   -101523.94    -91393.93    245.99399    20724    225884.93   -114.63918   -33.255589   -91.305976   -219.35597     433.6855    23.504629    22.159449     1.194848    434.88035    -3926.319 
   27800   -101415.05   -91347.312    244.48188    20724     226010.1   -22.803578    12.786529    28.686737     -109.884    433.93677    23.504332     22.15917    1.0692141    435.00599   -3975.0239 
   27900   -101443.68   -91363.779    244.77725    20724     226035.8   -55.078897   -66.594081   -123.57553    24.932923    433.97432    23.504652    22.159471    1.0504412    435.02476   -3957.4011 
   28000   -101461.62   -91380.047    244.81778    20724    226049.52   -75.090818   -155.53668    75.856612   -145.59238    434.03471    23.503729    22.158601    1.0202456    435.05495   -3939.1131 
   28100   -101424.96   -91324.148    245.28516    20724    226092.33  -0.33220465     93.87798    60.296715   -155.17131    433.88926    23.509894    22.164413    1.0929677    434.98223   -4000.3227 
   28200   -101371.18   -91302.432    244.50638    20724    226053.36   -3.1050773   -126.35312    189.01135   -71.973459    433.79123    23.510524    22.165007    1.1419846    434.93322    -4023.383 
   28300   -101336.06   -91315.906    243.32625    20724    226137.09   -25.250852    51.988482   -85.472848   -42.268189    433.90482      23.5118     22.16621    1.0851921    434.99001   -4007.2289 
   28400   -101321.23   -91323.067    242.79232    20724    226015.97    124.51093    138.20569   -196.28345    431.61054    433.78321    23.508797     22.16338    1.1459967     434.9292    -4012.935 
   28500   -101310.19   -91282.375    243.51237    20724    225954.57   -36.940473    11.212337    46.601033   -168.63479    433.46866     23.51413    22.168407     1.303268    434.77193   -4048.0987 
   28600   -101454.03   -91277.828    247.11582    20724    226006.45    38.094791    206.64881    241.95905   -334.32349    433.55099    23.514597    22.168847    1.2621062    434.81309   -4057.8672 
   28700    -101307.8   -91285.638    243.37512    20724    226044.66     61.22122    156.80679     108.4095   -81.552626    433.70212    23.512487    22.166858    1.1865387    434.88866   -4048.8057 
   28800   -101355.06   -91293.088    244.34183    20724    226160.45   -33.301315   -68.305976   -246.79116    215.19319    433.65943    23.519666    22.173626    1.2078829    434.86732   -4035.8022 
   28900   -101399.31   -91262.542     246.1582    20724     226035.9   -95.686374    -220.2684    -36.58979   -30.200929    433.60476    23.514671    22.168917    1.2352222    434.83998    -4067.143 
   29000      -101297   -91254.592    243.86684    20724    225988.46   -16.469248   -114.51712   -215.89166    281.00103    433.79881    23.506944    22.161632    1.1381964      434.937   -4082.0096 
   29100   -101381.13   -91201.357    247.20244    20724    226112.69   -5.8796658    33.870864    29.337818    -80.84768    433.52135    23.520928    22.174815    1.2769272    434.79827   -4133.4205 
   29200      -101385   -91245.665    246.22064    20724    225951.27   -24.618427   -55.568561    193.81664   -212.10336    433.68219     23.50817    22.162788    1.1965032     434.8787   -4093.8156 
   29300   -101265.21    -91207.17    244.24629    20724    226003.67     57.01037    231.28532   -120.08934    59.835125    433.75782    23.508845    22.163425    1.1586888    434.91651   -4137.5396 
   29400   -101248.64   -91178.285    244.54553    20724    225724.14    -11.18823   -32.717396    194.28007   -195.12736    433.26173    23.507749    22.162391    1.4067326    434.66847   -4170.8042 
   29500   -101339.17   -91194.117     246.3593    20724    225960.06   -73.227588     22.35651   -165.00719   -77.032084    433.19165    23.521934    22.175764    1.4417754    434.63342    -4149.037 
   29600   -101217.58    -91168.28    244.03416    20724    225823.37   -57.495695   -78.360533   -124.82957    30.703022    433.40105    23.509137      22.1637    1.3370773    434.73812   -4179.1239 
   29700   -101294.52   -91170.979    245.83706    20724    225786.96     93.17776    113.86286    234.06978    -68.39936    433.09235    23.515618    22.169809    1.4914261    434.58377   -4185.1171 
   29800   -101310.51   -91145.535    246.84309    20724    225797.78    14.043514    108.02358   -75.618048    9.7250101    433.18388    23.513696    22.167998     1.445661    434.62954   -4209.7417 
   29900   -101287.84   -91121.079    246.88648    20724    225664.39   -55.451144   -66.918513    28.557056   -127.99198    433.20315    23.506227    22.160956    1.4360245    434.63918   -4233.9268 
   30000   -101230.49    -91081.31    246.45971    20724    225890.24    56.744092    102.61442    131.11696   -63.499103    433.03676    23.522505    22.176303    1.5192223    434.55598   -4274.4147 
   30100   -101229.05   -91100.416    245.96057    20724    225768.83   -68.143312   -93.068639   -292.94741    181.58611     432.9927    23.517379     22.17147    1.5412485    434.53395   -4253.5604 
   30200    -101191.9    -91034.97    246.64782    20724     225765.3   -22.313548   -15.855018   -195.45852     144.3729    433.41196    23.505817     22.16057    1.3316177    434.74358    -4323.137 
   30300   -101139.23   -91066.485    244.60354    20724     225638.3    -1.690839   -66.799859   -44.501855     106.2292    433.26856    23.503094    22.158003    1.4033218    434.67188   -4296.2164 
   30400   -101180.67   -91020.539    246.72548    20724    225855.06   -17.604595     40.04169   -88.863874   -3.9916005    433.37295    23.511548    22.165973    1.3511271    434.72407   -4335.6637 
   30500   -101157.49   -90978.233    247.18996    20724    225638.92   -34.551904   -129.73645   -51.190778    77.271518    433.17264    23.505728    22.160486    1.4512793    434.62392   -4384.0064 
   30600   -101079.23   -90967.077    245.56047    20724    225816.89   -40.459592   -62.351809    172.15217   -231.17914    433.33429     23.51061    22.165088    1.3704552    434.70474   -4389.8892 
   30700   -101219.09    -91009.37    247.92972    20724    225719.61   -39.368818   -421.75563    154.95588    148.69329    433.15734    23.510346    22.164839    1.4589295    434.61627   -4353.4255 
   30800   -101048.55   -91010.715    243.75581    20724    225595.46    95.153726   -62.529585   0.28260257    347.70816    433.14474    23.504222    22.159066    1.4652279    434.60997    -4363.945 
   30900   -101145.35   -91018.502    245.91724    20724    225773.28    7.0603977   -199.65519    318.91128   -98.074896    432.93676     23.51913    22.173121    1.5692177    434.50598   -4350.6065 
   31000   -101115.65   -91023.146    245.08331    20724    225567.85   -97.752274    107.52649   -355.54935   -45.233962    432.71188    23.514536    22.168789    1.6816618    434.39354   -4347.7205 
   31100    -101154.7   -91018.263    246.15011    20724    225648.19   -5.5034486   -86.528323    109.44668   -39.428699    432.91197    23.513287    22.167612    1.5816126    434.49359   -4357.6054 
   31200   -101267.63    -90986.27    249.66937    20724    225613.65   -111.59323   -120.78173    -466.0298    252.03183     432.7707    23.515325    22.169533    1.6522478    434.42295   -4385.5149 
   31300   -101179.63   -91003.973     247.1025    20724    225707.53    32.249929    21.436516  -0.13066619    75.443936    432.92373    23.516059    22.170225     1.575735    434.49946   -4371.4733 
   31400   -101130.85   -90977.971    246.54939    20724    225650.79   -2.6959646     150.0664    59.193045   -217.34734    432.70829    23.518956    22.172956    1.6834526    434.39175   -4399.1791 
   31500   -101069.24   -90942.095     245.9246    20724    225646.19    9.7680483    86.668649   -158.84675    101.48225    432.71291     23.51859    22.172612    1.6811442    434.39406   -4436.4675 
   31600    -101086.6   -90920.227    246.87709    20724     225600.8    84.329896    258.40379     95.35869   -100.77279     432.9132    23.510785    22.165253    1.5810019     434.4942   -4462.8958 
   31700   -101057.26   -90927.645    245.98452    20724    225442.03   -1.8745232    325.90044   -96.689693   -234.83432     432.5729    23.511753    22.166166    1.7511493    434.32405   -4457.4762 
   31800   -101097.59   -90920.471    247.13798    20724    225450.46      21.8362    328.67884   -68.834997   -194.33525    432.75199    23.507326    22.161993    1.6616029     434.4136   -4467.5828 
   31900   -101028.37   -90927.763    245.28019    20724    225252.19    38.153725    36.143085   -41.910849    120.22894    432.98249    23.490733    22.146349     1.546355    434.52885   -4466.6346 
   32000   -100965.63   -90857.876    245.45359    20724    225525.88   -72.786238   -130.82134   -206.59579    119.05841    433.20216    23.499039     22.15418    1.4365219    434.63868   -4524.5099 
   32100   -101066.51   -90870.263    247.60251    20724    225718.83    81.481711   -35.652878    279.54803   0.54997761    433.18356    23.509594    22.164131    1.4458222    434.62938   -4516.9736 
   32200   -101063.75   -90871.082    247.51561    20724    225497.72   -41.594266    -110.3054    52.701638   -67.179033    433.07887    23.500916    22.155949    1.4981635    434.57704   -4516.9093 
   32300   -101033.11   -90857.989    247.08947    20724    225777.12    77.499547    97.787077    148.34797   -13.636402    433.06519    23.515843    22.170021    1.5050055    434.57019   -4528.4339 
   32400    -101137.5    -90842.23    250.00722    20724    225761.85   -152.38274   -145.12035   -481.14261    169.11475    433.11374    23.513729    22.168029    1.4807296    434.59447   -4535.1528 
   32500   -100953.84   -90827.611    245.90222    20724    225592.85    78.621475    150.77039   -134.13006     219.2241    432.99444    23.508165    22.162783    1.5403777    434.53482   -4565.5229 
   32600   -101024.06   -90855.666    246.92622    20724    225596.36   -57.041945    76.932701    123.31456   -371.37309    433.25247    23.501346    22.156355    1.4113667    434.66383   -4531.0673 
   32700   -100958.62   -90846.193      245.567    20724    225484.97   -39.771132   -195.68616   -34.410894    110.78365    432.84831     23.50651    22.161223    1.6134443    434.46176   -4545.7434 
   32800   -101008.89   -90862.794     246.3846    20724     225421.1    39.321656    108.37296    350.32174   -340.72973    432.78518    23.504895      22.1597    1.6450118    434.43019   -4536.9502 
   32900   -100912.53   -90822.845    245.01489    20724    225701.79     63.54893    23.031137    65.689632    101.92602    432.96803    23.514557     22.16881    1.5535871    434.52161   -4571.1944 
   33000   -101010.75   -90837.277    247.04944    20724    225575.84    8.8754889    210.43592   -269.62983     85.82037    432.91904    23.509325    22.163877    1.5780796    434.49712   -4557.9875 
   33100   -100962.56   -90824.554    246.18834    20724    225809.35 -0.053921686   -178.92149   -122.93648     301.6962    433.24148    23.512736    22.167092    1.4168575    434.65834   -4566.0795 
   33200   -100946.95   -90800.643     246.3899    20724    225625.52   -57.216597   -217.98874    362.60371   -316.26476    433.05579    23.508201    22.162817    1.5097043     434.5655   -4593.8189 
   33300    -101010.4   -90818.601    247.49454    20724     225497.9   -5.9355747    165.39972   -9.8581885   -173.34826     432.9145    23.505387    22.160164     1.580349    434.49485   -4584.1604 
   33400   -100978.87    -90789.41     247.4378    20724    225721.22    55.663852    75.465647     22.33294    69.192967    432.98498    23.515109     22.16933    1.5451091    434.53009    -4609.123 
   33500   -101030.74   -90749.165    249.67474    20724    225894.15   -55.626203   -71.276185   -115.67065    20.068223    432.96982    23.524527    22.178209    1.5526908    434.52251   -4642.3305 
   33600   -100860.77   -90750.023    245.52643    20724    225629.02    42.305835    131.78996    11.968951   -16.841408    432.96962    23.510723    22.165195    1.5527889    434.52241   -4653.4391 
   33700   -100998.66   -90780.978     248.1232    20724    225922.34     -85.7611   -74.143499   -292.58634    109.44654    433.11024    23.522181    22.175997    1.4824797    434.59272   -4609.6552 
   33800   -100983.31   -90760.293    248.25265    20724    225755.63   -42.860173   -214.67111    150.76288   -64.672289    433.18256    23.511538    22.165963    1.4463223    434.62888   -4638.8051 
   33900   -101024.38   -90749.835    249.50398    20724    225807.76   -83.400661   -34.040529     -256.302    40.140548    433.46261    23.506655     22.16136     1.306296     434.7689   -4646.7977 
   34000   -100976.34   -90762.355    248.03344    20724    225795.66    24.600481    131.36866   -11.342143   -46.225078    433.33693    23.509433    22.163979    1.3691374    434.70606   -4640.8494 
   34100    -101005.8   -90755.098    248.92489    20724    225843.91   -29.080173    -85.76566    -228.5404    227.06554    433.63732      23.5038    22.158668    1.2189408    434.85626   -4646.4668 
   34200   -100930.44   -90779.742    246.49656    20724     225698.4     81.13637    51.166412    29.541991    162.70071    433.49658    23.500041    22.155124    1.2893089    434.78589   -4631.0568 
   34300   -100954.82   -90724.724    248.42443    20724     225918.9    45.093665    13.765948    160.86788   -39.352828      433.742    23.504865    22.159672    1.1666019     434.9086   -4679.0106 
   34400   -100870.86   -90717.534    246.56028    20724    226039.58    35.097601    210.76638    101.88509   -207.35867    433.80353    23.509474    22.164018    1.1358349    434.93937   -4682.8682 
   34500   -100879.71   -90682.419     247.6279    20724    225998.34    16.928204    66.841967   -52.643494     36.58614    433.91059     23.50443    22.159262    1.0823025     434.9929    -4719.952 
   34600      -100929    -90656.37     249.4574    20724    225812.57    1.6194729    -189.3455    44.954997    149.24893     433.8931    23.495241    22.150599    1.0910512    434.98415   -4751.5374 
   34700   -100891.21   -90672.114    248.15731    20724    225796.73   -63.441543    17.825375   -288.45534    80.305338    433.46243    23.506085    22.160823     1.306383    434.76882   -4736.0829 
   34800   -100971.73   -90694.568    249.56756    20724    225963.23    50.993987   -32.519787    307.33078   -121.82903    433.66866    23.509158     22.16372    1.2032683    434.87193   -4716.6367 
   34900   -100811.04   -90686.862    245.85246    20724    225851.33    33.016162   -24.902977   -138.74702    262.69848    433.41409    23.510238    22.164738    1.3305529    434.74465   -4723.9554 
   35000   -100911.83     -90672.8    248.64157    20724    225926.05     5.503869   -13.935529    96.957414   -66.510278    433.53037    23.510973    22.165431    1.2724144    434.80279   -4737.5593 
   35100   -100955.43   -90673.218    249.69016    20724    225898.95   -45.865723    3.5634993    79.887192   -221.04786    433.60674    23.507493    22.162149    1.2342322    434.84097   -4737.0902 
   35200    -100972.2    -90670.99     250.1514    20724    225739.22   -50.636263   -83.512117    3.4843769   -71.881048    433.29254    23.507699    22.162344    1.3913312    434.68387    -4745.715 
   35300   -100852.15   -90681.436     246.9825    20724    225938.97    22.924081    31.524073   -119.66569    156.91386    433.50508    23.512331    22.166711    1.2850578    434.79014   -4733.6105 
   35400   -100912.21   -90681.811    248.43202    20724    225845.65   -1.5547358    -98.25937   -5.2027847    98.797947    433.42895    23.509539    22.164079    1.3231231    434.75208    -4734.534 
   35500   -100870.77   -90689.401    247.24124    20724    225731.98   -29.487261   -163.39758    71.393517    3.5422778    433.50664    23.501516    22.156515    1.2842785    434.79092   -4730.4667 
   35600   -100895.32   -90676.954    248.13977    20724    225808.01    14.619796    51.884078   -97.001503    88.976812    433.43602    23.507389    22.162051    1.3195902    434.75561   -4742.0415 
   35700   -100980.39   -90668.964    250.39948    20724    225766.88    24.789257      108.854   -206.95257    172.46633    433.59525    23.500931    22.155963    1.2399765    434.83522    -4755.575 
   35800   -100905.74   -90678.161    248.36333    20724    225753.47   -23.428065    81.169199    184.58949   -336.04288    433.11887    23.513154    22.167486    1.4781653    434.59703   -4744.3502 
   35900   -100836.29    -90669.22      246.894    20724    225773.06    91.085228    108.47964   -43.595945    208.37199    433.42986    23.505736    22.160494    1.3226676    434.75253   -4759.6406 
[...]
  491300    -93459.46   -80585.966    312.61602    20724    220689.71    26.594728   -218.01561   -11.396947    309.19674    421.18492    23.575008    22.225801    7.4451388    428.63006   -22462.515 
  491400   -93366.154   -80568.499    310.77437    20724    220695.01    0.4776401     1.294873    30.547503   -30.409456    421.34574    23.570791    22.221826    7.3647294    428.71047   -22478.306 
  491500   -93449.965   -80583.799    312.43808    20724    220942.84   -70.837864   -145.53918    40.820976   -107.79539    421.41452    23.582097    22.232485    7.3303379    428.74486   -22454.811 
  491600   -93304.193   -80569.066    309.25597    20724    220676.69    82.923781    52.626157    301.77458   -105.62939    421.66382    23.560922    22.212521    7.2056907    428.86951   -22485.997 
  491700   -93422.555   -80567.412    312.17039    20724    221007.03   -56.858671   -88.616148    322.65528   -404.61514    421.67241     23.57831    22.228914    7.2013957     428.8738   -22472.599 
  491800   -93322.236   -80515.101    311.00459    20724    220573.22   -79.857652   -311.84832   -125.24736    197.52272    421.52296    23.559333    22.211023    7.2761214    428.79908   -22540.776 
  491900   -93280.919   -80587.829    308.23516    20724    220761.66    17.848862    86.090234    109.77272   -142.31636    421.57036     23.56807    22.219259    7.2524206    428.82278   -22470.305 
  492000   -93474.247   -80656.274    311.26779    20724    220944.53    18.963456     29.59417    -112.1974     139.4936    421.69043    23.574471    22.225295    7.1923828    428.88282   -22397.684 
  492100   -93392.083   -80611.247    310.36596    20724    220776.28     2.820476    3.3277004   -13.251002    18.384729     421.7086    23.564986    22.216353    7.1833013     428.8919   -22448.038 
  492200   -93375.066   -80582.349    310.65446    20724    221002.76    86.866849   -128.56814   -28.188523    417.35721    421.97352    23.569668    22.220767    7.0508419    429.02436   -22473.823 
  492300   -93472.514    -80567.34    313.38534    20724     220700.6   -20.669582   -89.630475   -59.151106    86.772834     421.5918    23.564211    22.215621    7.2416993     428.8335   -22496.999 
  492400   -93328.992   -80548.263    310.36334    20724    220659.62   -99.614271   -180.63175    203.44265   -321.65371    421.46995    23.565428    22.216769    7.3026256    428.77257   -22512.858 
  492500   -93374.941   -80550.039    311.43603    20724    220561.02    62.429494    194.74364    3.0781145   -10.533275    421.09903    23.570537    22.221586    7.4880851    428.58711   -22530.256 
  492600   -93335.948   -80542.609    310.66959    20724    220721.85   -8.0197316    13.766781    161.75315   -199.57913    421.03746    23.580853    22.231312    7.5188706    428.55633   -22526.348 
  492700     -93438.5   -80597.688     311.8224    20724    220685.64   -58.150584   -201.63683   -111.29333     138.4784    420.91397    23.582377    22.232748    7.5806158    428.49458   -22474.675 
  492800   -93467.348    -80539.31    313.94056    20724    220666.97   -126.58296    78.878367   -450.96266   -7.6645936    420.76176    23.585644    22.235829    7.6567211    428.41848   -22533.006 
  492900   -93372.075   -80525.392    311.96496    20724    220510.97  -0.39770577   -189.31016    84.722326    103.39472    421.11106    23.567526    22.218747    7.4820721    428.59313   -22558.221 
  493000   -93373.585   -80536.192    311.73937    20724    220475.93   -12.038945   -343.94159    197.45029    110.37446    421.03121    23.567888    22.219088    7.5219974     428.5532   -22551.639 
  493100   -93261.094   -80538.947    308.94078    20724    220681.86     49.54601   -14.161697     185.0735   -22.273773     421.1166    23.576501    22.227208    7.4792993     428.5959   -22544.998 
  493200   -93323.075   -80504.906    311.27254    20724    220335.19   -85.236048    8.8958982   -163.57198   -101.03206    420.75572    23.568076    22.219266    7.6597411    428.41546   -22589.008 
  493300    -93307.09   -80503.499    310.91852    20724    220637.79    54.004654    188.53433   -9.2216055   -17.298764    420.93336    23.579277    22.229826    7.5709212    428.50428   -22585.997 
  493400   -93364.007    -80487.73    312.68361    20724    220562.35   -11.489759   -102.80358   -60.801368    129.13567    421.02133    23.572783    22.223703    7.5269349    428.54827   -22603.985 
  493500   -93377.509   -80498.436    312.75151    20724    220532.73    53.648304   -46.585459    23.551927    183.97844    420.67933     23.58078    22.231242    7.6979372    428.37726   -22599.212 
  493600   -93335.389   -80495.402    311.80236    20724    220837.13   -7.7768907    35.590435   -166.88116    107.96005    421.21829    23.581946    22.232342    7.4284532    428.64675   -22590.897 
  493700   -93361.888   -80494.014    312.47955    20724    221021.61   -9.4629454     64.24647    61.739727   -154.37503    421.80264    23.575447    22.226215    7.1362824    428.93892   -22584.672 
  493800   -93382.711   -80480.912    313.30338    20724    220880.92    44.919419    131.65279   -76.139174    79.244638    422.06336    23.560662    22.212276    7.0059183    429.06928   -22610.729 
  493900   -93165.256   -80508.854    307.34422    20724     220723.1    60.293091    75.618079   -98.556408     203.8176    421.41854    23.570255     22.22132    7.3283286    428.74687   -22587.443 
  494000   -93202.591    -80439.83    309.92702    20724    220768.22    168.60814   -22.715412    348.08177    180.45808    421.29935    23.575999    22.226735    7.3879268    428.68727   -22661.118 
  494100   -93234.188   -80504.457    309.12493    20724    220888.34    97.091703    114.03333    71.751081     105.4907    421.80459    23.568284    22.219462    7.1353035     428.9399   -22591.665 
  494200   -93415.103   -80510.018     313.3832    20724    220924.49   -74.433021   -113.04782   -151.24309    40.991842    422.02174    23.564148    22.215562    7.0267321    429.04847   -22578.892 
  494300   -93320.575   -80505.703    311.19246    20724    220785.15    100.73933   -38.495722    324.65229    16.061415    421.60884    23.568248    22.219427    7.2331824    428.84202   -22598.821 
  494400   -93393.254   -80517.549    312.66972    20724    220820.53   -38.796395    139.25667   -261.56388    5.9180233    421.70088    23.567564    22.218782    7.1871616    428.88804   -22579.702 
  494500   -93278.275   -80467.823    311.08514    20724    221049.14   -43.966844   -292.85356   -10.415491    171.36852    422.04223    23.570222    22.221289    7.0164828    429.05872   -22621.882 
  494600   -93272.961   -80466.351    310.99185    20724    221018.64   -28.483884   -5.4485687    30.779711   -110.78279    421.57827    23.581561    22.231979    7.2484648    428.82674   -22627.666 
  494700    -93242.27   -80487.268    309.73863    20724     220969.4    69.962618    75.500752    -106.6476    241.03471    421.39682     23.58401    22.234288    7.3391919    428.73601   -22612.932 
  494800   -93206.979   -80500.948    308.54941    20724    220975.74    104.91697    84.364367     276.8487   -46.462153    421.44245    23.583072    22.233403    7.3163742    428.75883   -22603.698 
  494900   -93417.168   -80518.028    313.23881    20724    221085.81   -144.08686   -266.59967   -40.252345   -125.40857     421.7699    23.579786    22.230305    7.1526486    428.92255   -22573.431 
  495000    -93313.22   -80524.148    310.56595    20724    220693.47   -60.980462   -83.294751   -160.36126    60.714624    421.13618    23.576573    22.227276    7.4695098    428.60569   -22588.877 
  495100   -93326.026   -80542.947    310.42043    20724    220886.34    127.44988    263.13579    151.54801   -32.334149    421.26516    23.583262    22.233583    7.4050225    428.67018   -22570.849 
  495200   -93405.748   -80507.701    313.21227    20724    220922.94   -16.599252     -33.3587   -157.14919    140.71013    421.55944    23.576982    22.227662    7.2578813    428.81732   -22599.831 
  495300   -93305.109   -80535.026    310.10484    20724    220850.43   -67.656562   -77.614931   -43.810243   -81.544512    422.00715    23.560605    22.212222    7.0340245    429.04118   -22574.711 
  495400   -93254.073    -80547.65    308.55892    20724    221013.44    86.224805    8.7885543    266.56387   -16.678007    422.00207     23.56944    22.220551    7.0365628    429.03864   -22566.995 
  495500   -93318.801   -80554.041    309.97557    20724    221135.72     17.82555   -97.790988    38.770269    112.49737    422.22072    23.569854    22.220942     6.927239    429.14796   -22554.763 
  495600   -93474.103   -80541.857    314.04276    20724    221255.01    -82.42359   -49.553688   -32.256486    -165.4606    422.22525    23.576084    22.226815    6.9249745    429.15023   -22561.401 
  495700   -93382.435   -80544.431    311.75421    20724    220861.82   -41.278974   -154.82035  0.057004259    30.926428    421.60124    23.572552    22.223485    7.2369813    428.83822   -22574.503 
  495800   -93448.955   -80536.133    313.57104    20724    220624.73   -30.047781   -109.08445    208.87927   -189.93816    421.52754    23.561956    22.213496    7.2738322    428.80137   -22595.853 
  495900   -93386.556   -80502.502    312.87247    20724    221013.84   -45.019309   -16.423915   -10.248629   -108.38538    421.51247    23.583146    22.233473    7.2813655    428.79383   -22615.723 
  496000   -93277.835   -80496.651    310.37441    20724    221376.11   -23.761232    212.52528     -100.907   -182.90198    421.86607    23.592572     22.24236    7.1045638    428.97064   -22609.239 
  496100   -93492.782   -80495.367    315.62527    20724    221098.49   -84.132897    34.537892   -102.02613   -184.91045    422.10205    23.571183    22.222195    6.9865753    429.08862   -22622.789 
  496200   -93414.657   -80484.128    314.00107    20724    221277.36   -121.85289   -153.85759   -153.51557   -58.185494    422.23159    23.577098    22.227771    6.9218054    429.15339   -22627.328 
  496300    -93249.39   -80518.587    309.15095    20724    221372.46    91.953272    250.49784   -30.563002    55.924982    422.52923    23.573857    22.224715    6.7729854    429.30221   -22596.951 
  496400   -93380.166   -80510.449     312.5243    20724    221195.29   -46.691638   -102.11277    98.462806   -136.42495    422.33963     23.56971    22.220806     6.867784    429.20742   -22609.537 
  496500   -93344.594   -80547.765    310.75432    20724     220922.9   -0.5969938   -122.50902   -84.067108    204.78515    421.78337     23.57072    22.221759    7.1459137    428.92929   -22587.253 
  496600   -93314.119    -80492.64    311.35291    20724    221175.41    169.58932    98.335044    41.113486    369.31942    421.85037    23.582314    22.232689    7.1124161    428.96278   -22642.999 
  496700   -93372.315   -80511.923    312.29786    20724    220846.32    18.529221    184.16847   -240.58731    112.00651    421.92527    23.562671     22.21417    7.0749635    429.00024   -22630.286 
  496800   -93372.091   -80545.935    311.46648    20724    220897.73    126.49296    142.83929    57.107493    179.53209    422.32356    23.554299    22.206277     6.875821    429.19938   -22599.995 
  496900   -93327.422   -80500.892    311.47557    20724    221056.31   -40.969126   -218.62431   -177.36707      273.084    422.34476    23.562161    22.213689    6.8652186    429.20998    -22634.71 
  497000    -93329.61   -80476.258    312.12692    20724    221026.09    12.867617    10.566611    133.15532   -105.11908    422.33065    23.560944    22.212541    6.8722725    429.20293   -22665.362 
  497100    -93401.15   -80475.944    313.87178    20724    220940.48   -119.04412   -361.95226    34.307861   -29.487953    422.70544    23.545935    22.198392     6.684879    429.39032   -22664.614 
  497200    -93335.58   -80467.558    312.48315    20724    221111.65    52.555426    50.764446    343.41399   -236.51216    422.45075    23.562154    22.213682    6.8122244    429.26298   -22677.028 
  497300   -93217.639   -80423.856    310.68037    20724    221114.89      24.9958    122.73168   -177.42302    129.67874    422.53195    23.560062    22.211711    6.7716259    429.30357   -22718.759 
  497400   -93216.503   -80431.869    310.45819    20724    221182.24    5.0920032    26.526805    29.613239   -40.864035    422.42591    23.566608    22.217881    6.8246471    429.25055   -22712.325 
  497500   -93245.503   -80437.637    311.02234    20724    221430.09   -5.3739314   -7.8171369   -196.14872    187.84407     422.6385    23.573877    22.224734     6.718349    429.35685   -22696.173 
  497600   -93255.097   -80443.719    311.10764    20724    221391.59    -11.37473    248.25659    76.470614    -358.8514    422.50347    23.575593    22.226353    6.7858638    429.28934   -22693.214 
  497700   -93225.628   -80443.777     310.3906    20724    220994.38   -113.08988   -319.51771   -126.13779    106.38585    422.56184    23.552808    22.204871    6.7566796    429.31852   -22705.964 
  497800    -93254.31   -80470.185    310.44582    20724     221130.7     62.53753   -135.99533    22.263219     301.3447    422.66496    23.557197    22.209009    6.7051176    429.37008   -22684.249 
  497900   -93222.142   -80496.046    309.03665    20724    221390.44    133.21243    49.486542    76.780835    273.36993     422.8153    23.566837    22.218098    6.6299492    429.44525   -22652.342 
  498000   -93324.887   -80451.755    312.60724    20724    221665.71    78.153488    57.578293    70.763559    106.11861    423.04472    23.575089    22.225877    6.5152386    429.55996   -22688.089 
  498100   -93310.378   -80438.994    312.56479    20724    221678.36   -9.2601369   -3.1995881   -155.69843    131.11761    422.67025    23.586202    22.236354     6.702473    429.37273   -22696.141 
  498200   -93243.837   -80435.605    311.03123    20724    221892.67   -68.995588   -92.729979    -153.8676    39.610812    422.83225     23.59308    22.242839    6.6214768    429.45372   -22691.274 
  498300   -93295.673   -80455.659    311.80302    20724    221329.16    131.51122   -2.8726915   -115.43612    512.84247    422.70268    23.566714    22.217982    6.6862589    429.38894   -22703.912 
  498400   -93205.903   -80421.484    310.45295    20724    221705.66   -3.4477324    143.71298    152.88009   -306.93627    422.63767    23.588564    22.238581     6.718766    429.35643   -22719.411 
  498500   -93300.695   -80435.003    312.42658    20724    221147.43   -121.85233   -231.22684    92.387151    -226.7173    422.21073    23.570757    22.221793    6.9322345    429.14297   -22723.147 
  498600   -93319.915   -80471.884    311.99768    20724    221353.81    40.279776    283.43807    -87.38527   -75.213468    422.41403    23.576077    22.226809    6.8305829    429.24462   -22688.103 
  498700    -93363.41   -80473.955    313.00363    20724    221264.18    77.103962   -127.42046   -134.82495     493.5573    422.04346     23.58165    22.232062    7.0158718    429.05933   -22694.175 
  498800   -93341.847   -80456.889    312.89441    20724    221215.46   -78.827291   -157.21385   -279.30819    200.04016      421.417    23.596573    22.246132    7.3291018     428.7461   -22706.789 
  498900   -93201.912   -80452.471    309.60355    20724    221243.75   -26.256609    -102.3542    88.808579   -65.224204    421.18212     23.60466    22.253756    7.4465383    428.62866   -22713.759 
  499000   -93218.145   -80442.483     310.2403    20724    221334.55    161.40627    310.94475    136.14502    37.129022    421.32994    23.605362    22.254417    7.3726294    428.70257   -22729.415 
  499100   -93231.666    -80448.75    310.41646    20724    221091.31   -42.203054   -83.610374   -86.602212    43.603423    421.64976    23.583438    22.233749    7.2127193    428.86248   -22727.196 
  499200   -93187.174   -80427.358    309.85551    20724    221343.63    49.335113   -76.038153    2.9483643    221.09513    421.92018    23.589329    22.239302    7.0775093    428.99769   -22743.468 
  499300   -93299.369   -80476.342     311.3905    20724    221093.59   -43.300016   -24.147402    348.45531   -454.20796     421.7715    23.580156    22.230654    7.1518481    428.92335    -22702.66 
  499400   -93260.884   -80487.181    310.19274    20724    221035.43    43.170208    124.10924   -329.65028    335.05166    421.99971    23.570679    22.221719    7.0377453    429.03745   -22697.635 
  499500    -93328.95   -80490.757    311.75879    20724    221148.15   -40.185254   -97.542734    30.299877   -53.312903    421.76042    23.583375    22.233689    7.1573924    428.91781   -22687.823 
  499600   -93384.021   -80511.562    312.59091    20724     220842.2   -85.277029   -300.24057   -36.465161    80.874642     421.2773    23.580565     22.23104    7.3989494    428.67625   -22680.542 
  499700   -93398.125   -80479.009     313.7239    20724    221297.21   -55.881868    73.578939    123.15943   -364.38397    421.88863    23.587737    22.237801    7.0932842    428.98192   -22696.383 
  499800   -93276.757   -80478.722     310.7836    20724    221241.19    23.950028    115.81216   -72.952073    28.989999    421.98806    23.581972    22.232367    7.0435707    429.03163   -22703.774 
  499900   -93326.521   -80488.806    311.74718    20724    221055.97    92.268137    259.34218    199.95444   -182.49221     422.1482    23.567627    22.218843    6.9635008     429.1117   -22704.276 
  500000   -93289.051   -80447.908    311.83042    20724    221359.17    93.646463    164.08896    119.01755    -2.167122    422.60501    23.571035    22.222055    6.7350926    429.34011   -22735.874 
Loop time of 51073.6 on 32 procs for 500000 steps with 20724 atoms

Performance: 1.692 ns/day, 14.187 hours/ns, 9.790 timesteps/s
97.3% CPU use with 32 MPI tasks x no OpenMP threads

MPI task timing breakdown:
Section |  min time  |  avg time  |  max time  |%varavg| %total
---------------------------------------------------------------
Pair    | 6263.8     | 9006.2     | 12339      |2397.2 | 17.63
Bond    | 0.3725     | 0.47912    | 0.58046    |   7.5 |  0.00
Kspace  | 8509.9     | 11863      | 14622      |2103.9 | 23.23
Neigh   | 8108.5     | 9864.1     | 11481      |1218.8 | 19.31
Comm    | 400.6      | 3724       | 7080       |4246.4 |  7.29
Output  | 4.3201     | 42.994     | 71.077     | 369.2 |  0.08
Modify  | 13027      | 16531      | 21362      |2350.3 | 32.37
Other   |            | 42.4       |            |       |  0.08

Nlocal:    647.625 ave 706 max 593 min
Histogram: 2 2 4 8 3 1 4 3 4 1
Nghost:    7279.19 ave 7864 max 6866 min
Histogram: 7 8 2 1 1 0 2 4 6 1
Neighs:    237876 ave 275830 max 209631 min
Histogram: 3 5 10 1 0 1 3 5 2 2
FullNghs:  475748 ave 548774 max 419707 min
Histogram: 2 6 10 1 0 0 4 3 4 2

Total # of neighbors = 15223949
Ave neighs/atom = 734.605
Ave special neighs/atom = 2
Neighbor list builds = 500000
Dangerous builds not checked
write_data production.R1
PPPM initialization ...
  extracting TIP4P info from pair style
WARNING: Using 12-bit tables for long-range coulomb (../kspace.cpp:316)
  G vector (1/distance) = 0.345893
  grid = 400 48 48
  stencil order = 5
  estimated absolute RMS force accuracy = 0.00040202
  estimated relative force accuracy = 1.21067e-06
  using double precision FFTs
  3d grid and FFT values/proc = 67260 38400
write_restart restartproduction.R1
PPPM initialization ...
  extracting TIP4P info from pair style
WARNING: Using 12-bit tables for long-range coulomb (../kspace.cpp:316)
  G vector (1/distance) = 0.345893
  grid = 400 48 48
  stencil order = 5
  estimated absolute RMS force accuracy = 0.00040202
  estimated relative force accuracy = 1.21067e-06
  using double precision FFTs
  3d grid and FFT values/proc = 67260 38400
Total wall time: 14:11:14
