LAMMPS (30 Jul 2016)
# Sets up LAMMPS simulation for transient melting of ice: TIP4P/Ice
# Ensure cold thermostats do not move
# Thinbox: 16x1x1
# Defects
# Order param l=2

#### setting MD parameters ####
units real
boundary p p p
atom_style full

# read ice box in restart file
### read the equilibrated NPT restart file

read_restart restart.state
  orthogonal box = (0.365274 0.0197107 0.0185826) to (435.71 23.5115 22.1659)
  32 by 1 by 1 MPI processor grid
  20736 atoms
  13824 bonds
  6912 angles
  2 = max # of 1-2 neighbors
  1 = max # of 1-3 neighbors
  1 = max # of 1-4 neighbors
  2 = max # of special neighbors


#### force field definition ####
pair_style      lj/cut/tip4p/long 2 1 1 1 0.1577 10.0
pair_modify	tail yes

kspace_style	pppm/tip4p 1.0e-6

bond_style	harmonic
angle_style	harmonic
dihedral_style	none
improper_style	none

bond_coeff	1 450.0 0.9572
angle_coeff	1 55.0 104.52


# reset pair coeff
pair_coeff	* * 0.0 0.0

#OO
pair_coeff	2 2 0.21085 3.1668
#OH
pair_coeff	* 1 0.0000 0.0000

neighbor        2.0 bin
neigh_modify    every 1 delay 1 check no

timestep	2.0
fix		constraints all shake 0.000001 20 0 b 1 a 1
  0 = # of size 2 clusters
  0 = # of size 3 clusters
  0 = # of size 4 clusters
  6912 = # of frozen angles

group water type 1 2
20736 atoms in group water

#*********** SIMULATION PARAMETER TO ADJUST ****************
#Box dimensions
variable lx equal lx
variable ly equal ly
variable lz equal lz

### Temperature of the hot and cold regions ####
variable thi equal 375
variable tlo equal 215
variable runpressure equal 0.986923


# Configuration equilibrated in density and temperature

# Define dx here

variable lx equal lx
variable ly equal ly
variable lz equal lz

variable xlo equal xlo
variable xhi equal xhi

variable boxcentre equal ${xlo}+(${xhi}-${xlo})/2
variable boxcentre equal 0.365274369922954+(${xhi}-${xlo})/2
variable boxcentre equal 0.365274369922954+(435.709925630081-${xlo})/2
variable boxcentre equal 0.365274369922954+(435.709925630081-0.365274369922954)/2

variable dx equal 2.0

#### ADD IN DEFECTS AT THE CENTRE OF THE HOT THERMOSTAT #####
variable y1 equal ${ly}/2.0
variable y1 equal 23.4917786146356/2.0
variable z1 equal ${lz}/2.0
variable z1 equal 22.147334716308/2.0

region kill1 sphere ${boxcentre} ${y1} ${z1} 3
region kill1 sphere 218.037600000002 ${y1} ${z1} 3
region kill1 sphere 218.037600000002 11.7458893073178 ${z1} 3
region kill1 sphere 218.037600000002 11.7458893073178 11.073667358154 3
delete_atoms region kill1 compress no bond yes mol yes
Deleted 9 atoms, new total = 20727
Deleted 6 bonds, new total = 13818
Deleted 3 angles, new total = 6909
############


variable thip equal ${thi}*2.0/3.0
variable thip equal 375*2.0/3.0
variable tlop equal ${tlo}*2.0/3.0
variable tlop equal 215*2.0/3.0
variable hbl equal ${boxcentre}-${dx}
variable hbl equal 218.037600000002-${dx}
variable hbl equal 218.037600000002-2
variable hbh equal ${boxcentre}+${dx}
variable hbh equal 218.037600000002+${dx}
variable hbh equal 218.037600000002+2

#***************************************************
## EQUILIBRATION PERIOD - to reach the steady state ###
#run 0

#reset the timestep to start your production run
reset_timestep 0

# define a group to perform averages
#group s1 type 1
###*** SYSTEM THERMOSTATTING: HOT and COLD regions ***###

fix NVE all nve
fix PRESS all press/berendsen aniso ${runpressure} ${runpressure} 500000 couple yz
fix PRESS all press/berendsen aniso 0.986923 ${runpressure} 500000 couple yz
fix PRESS all press/berendsen aniso 0.986923 0.986923 500000 couple yz


### Apply THERMOSTATS ###

#set up the "hot region" in the middle of the box
region hot block ${hbl} ${hbh} 0 ${ly} 0 ${lz} units box
region hot block 216.037600000002 ${hbh} 0 ${ly} 0 ${lz} units box
region hot block 216.037600000002 220.037600000002 0 ${ly} 0 ${lz} units box
region hot block 216.037600000002 220.037600000002 0 23.4917786146356 0 ${lz} units box
region hot block 216.037600000002 220.037600000002 0 23.4917786146356 0 22.147334716308 units box


#set up the "cold region" at the left end of the box
#region cold block ${cbl} ${cbh} 0 ${ly} 0 ${lz} units box

#set up the "cold region" at the right end of the box
#region cold2 block ${h2bl} ${xhi} 0 ${ly} 0 ${lz} units box


#Cold regions  unification
#region cold union 2 cold1 cold2 units box

#Create group of cold molecules
####group cool_ice region cold
####group cool_ice include molecule

####compute cold_temp cool_ice temp
####fix cold_rescale water temp/rescale 1 ${tlo} ${tlo} 0.0001 1.0
####fix_modify cold_rescale temp cold_temp

#this calculates the temperature using only the atoms in the "hot region"
#compute hot_temp all temp/region hot

# calculate the temperature using only WATER in the "hot region"
compute hot_temp water temp/region hot

#this calculates the temperature using only WATER in the "cold region"
#compute cold_temp water temp/region cold


#set up a basic velocity rescale for the hot region WATER with thip
fix hot_rescale water temp/rescale 1 ${thip} ${thip} 1.0 1.0
fix hot_rescale water temp/rescale 1 250 ${thip} 1.0 1.0
fix hot_rescale water temp/rescale 1 250 250 1.0 1.0
#change the thermostat to only act on the "hot region"
#this is done by passing it the "hot temp" compute that we defined above
fix_modify hot_rescale temp hot_temp

#set up a basic velocity rescale for the cold region
#fix cold_rescale water temp/rescale 1 ${tlop} ${tlop} 1.0 1.0
#change the thermostat to only act on the "cold region"
#this is done by passing it the "cold temp" compute that we defined above
#fix_modify cold_rescale temp cold_temp

### Ensure MOMENTUM CONSERVATION ###

#ensure that linear momentum is conserved despite the "thermostatting" by velocity rescaling
fix cons_mom all momentum 1 linear 1 1 1


thermo 100
thermo_style custom step pe etotal temp atoms vol press pxx pyy pzz lx ly lz xlo xhi  f_hot_rescale

group ox type 2
6909 atoms in group ox
group hy type 1
13818 atoms in group hy
compute KE all ke/atom
variable TEMP atom c_KE*4186.8/(1.3806488*6.02214129)

compute cc1 all chunk/atom bin/1d x center 2 units box
#fix TPROFILE all ave/chunk 1 500 500 cc1 v_TEMP density/number file temp.dat
fix TPROFILEox ox ave/chunk 1 500 500 cc1 v_TEMP density/number file temp-ox.dat
fix TPROFILEhy hy ave/chunk 1 500 500 cc1 v_TEMP density/number file temp-hy.dat

compute orderparam ox orientorder/atom degrees 1 2 nnn 4 cutoff 3.5
compute cc2 ox chunk/atom bin/1d x center 2 units box
#fix ORDERPARAM all ave/chunk 1 500 500 cc2 c_orderparam[1] file order-param.dat
fix ORDERPARAM all ave/chunk 1 500 500 cc2 c_orderparam[1] file order-param.dat

restart 50000 config.restart

run 500000
PPPM initialization ...
  extracting TIP4P info from pair style
WARNING: Using 12-bit tables for long-range coulomb (../kspace.cpp:316)
  G vector (1/distance) = 0.345582
  grid = 405 48 48
  stencil order = 5
  estimated absolute RMS force accuracy = 0.000406351
  estimated relative force accuracy = 1.22372e-06
  using double precision FFTs
  3d grid and FFT values/proc = 67260 38880
Neighbor list info ...
  2 neighbor list requests
  update every 1 steps, delay 1 steps, check no
  max neighbors/atom: 2000, page size: 100000
  master list distance cutoff = 12.3154
  ghost atom cutoff = 12.3154
  binsize = 6.1577 -> bins = 71 4 4
Memory usage per processor = 12.7933 Mbytes
Step PotEng TotEng Temp Atoms Volume Press Pxx Pyy Pzz Lx Ly Lz Xlo Xhi hot_resc 
       0   -103893.13   -95004.486      215.818    20727    226501.24   -207.45155   -12.618175    -437.6933   -172.04317    435.34465    23.491779    22.147335   0.36527437    435.70993            0 
     100   -103663.91   -94725.268    217.03191    20727    226446.83     2.589814    94.745125    74.483029   -161.45871    435.22442    23.492201    22.147733   0.42538781    435.64981    -281.0568 
     200   -103764.78   -94728.183    219.41016    20727    226300.76   -17.634937   -71.179383   -168.18508    186.45965    435.07812    23.488571    22.144311   0.49853864    435.57666   -281.73862 
     300   -103660.45   -94622.749    219.43696    20727    226377.92   -9.6116159   -2.1597383    71.823457   -98.498567     435.1896    23.489566    22.145249   0.44279969     435.6324   -386.44007 
     400   -103601.81   -94602.728    218.49939    20727    226504.03    7.5597631   -173.87848    9.9924332    186.56534     435.2463    23.494577    22.149973   0.41445118    435.66075   -402.74254 
     500   -103627.95   -94546.304    220.50405    20727    226460.62   -72.342021    139.47777   -290.46243   -66.041405    435.23453    23.492644     22.14815   0.42033646    435.65486   -459.83321 
     600   -103545.17   -94520.791    219.11359    20727    226468.37     91.82633    259.21598    103.50004   -87.237029    435.35565    23.489777    22.145448    0.3597763    435.71542   -494.64976 
     700   -103474.43    -94436.48    219.44313    20727    226515.72   -64.166065   -114.04593   -47.131832   -31.320431    435.39431     23.49119    22.146779   0.34044485    435.73476   -569.04756 
     800   -103506.99   -94455.405    219.77422    20727     226629.7    52.177078   -46.037196     31.65337    170.91506    435.28128     23.50015    22.155227   0.39696139    435.67824   -554.57427 
     900    -103422.1    -94393.55    219.21491    20727     226416.8   -1.0511247   -109.12253    124.45139   -18.482235    435.23113    23.490462    22.146094   0.42203697    435.65316   -618.70665 
    1000   -103510.41   -94411.909    220.91323    20727    226498.72    35.636695     26.21984   -11.645171    92.335415    435.32884    23.492075    22.147614   0.37317973    435.70202    -600.8555 
    1100   -103488.99   -94382.539    221.10626    20727    226440.51   -39.258248    13.721399   -369.93014      238.434    435.23438    23.491605    22.147171   0.42041071    435.65479   -628.06345 
    1200   -103492.94   -94330.902    222.45604    20727    226592.93    -42.35358   -288.04108   -254.56095    415.54129    435.23575    23.499473    22.154588   0.41972375    435.65548   -677.53487 
    1300   -103470.09    -94333.37    221.84128    20727    226533.58    26.234097   -16.920541    114.58093   -18.958094    435.04986    23.501414    22.156419   0.51267004    435.56253   -680.21033 
    1400   -103372.71   -94241.995    221.69546    20727    226491.39    10.170387    -65.34311    4.1016711      91.7526    435.36431    23.490738    22.146353   0.35544549    435.71975   -771.64662 
    1500   -103416.17   -94252.442    222.49699    20727    226555.21   -79.626347    84.657711   -314.23889   -9.2978672    435.35811    23.494214    22.149631   0.35854525    435.71665   -756.27417 
    1600   -103398.59   -94214.856     222.9827    20727    226400.82    46.678704    28.293642    162.65254   -50.910072    435.24815    23.489174    22.144879   0.41352256    435.66168   -805.30891 
    1700   -103347.67   -94191.847    222.30503    20727    226628.92    82.778435    57.043377    153.59702    37.694908    435.29319    23.499788    22.154886   0.39100575    435.68419   -823.73941 
    1800   -103276.13   -94143.769    221.73528    20727    226310.15    41.743278    160.98938    -36.96419    1.2046401    434.96695     23.49206      22.1476   0.55412295    435.52108   -879.79029 
    1900   -103302.28   -94159.386    221.99116    20727    226408.31   -55.731013   -83.206321   -77.305998   -6.6807201    435.31078    23.487873    22.143652   0.38221056    435.69299   -858.23977 
    2000   -103410.45   -94146.278    224.93589    20727     226497.9   -38.708982    -28.73757   -31.411903   -55.977473     435.1443    23.497013    22.152269   0.46544846    435.60975   -872.48162 
    2100   -103349.66   -94108.786       224.37    20727     226511.9   -41.789819    87.057692   -115.76898   -96.658168    435.16779    23.497105    22.152356   0.45370326     435.6215   -908.89036 
    2200   -103303.95   -94063.655    224.35597    20727    226577.51    -13.46926    47.460527   -41.496815   -46.371493    435.27877    23.497511     22.15274   0.39821258    435.67699   -954.27386 
    2300    -103283.7   -94031.129    224.65421    20727    226588.64    50.671453    83.102656   -172.28918    241.20088    435.39673    23.494905    22.150283   0.33923447    435.73597   -990.46584 
    2400   -103307.14   -94005.768    225.83894    20727    226640.07   -35.389715   -81.599857   -312.61511    288.04582    435.32323    23.499555    22.154666   0.37598303    435.69922    -1010.874 
    2500   -103316.77   -93990.769    226.43697    20727     226588.7   -76.246605   -166.69006   -139.93877    77.889014    435.39239    23.495026    22.150396   0.34140572    435.73379   -1026.5927 
    2600   -103245.26   -93984.032    224.86441    20727    226637.89   -6.3553877   -69.111664    91.592595   -41.547095     435.2475    23.501486    22.156487   0.41385116    435.66135   -1035.5157 
    2700   -103189.11   -93944.977    224.44913    20727    226408.22   -9.4976953    -8.645763    101.25634   -121.10366    435.20188    23.490806    22.146418   0.43666094    435.63854   -1082.5476 
    2800   -103217.88   -93944.993    225.14741    20727    226574.25    7.2437934    84.444204   -36.918469   -25.794354    435.31992    23.496232    22.151533   0.37763787    435.69756   -1078.8112 
    2900   -103245.61   -93873.533    227.55565    20727    226446.17   -42.134883   -18.694672   -7.9072587   -99.802719    435.29177    23.490349    22.145987   0.39171482    435.68349   -1153.9946 
    3000   -103187.78   -93850.728    226.70522    20727    226607.79   -40.527615    -189.3203   -188.83126    256.56872    435.23446    23.500278    22.155348   0.42036817    435.65483   -1173.0694 
    3100   -103126.87    -93813.59    226.12802    20727    226519.11   -58.376979   -79.769393   -83.897415   -11.464128    435.08902    23.499606    22.154714   0.49308942    435.58211   -1213.0075 
    3200    -103188.3   -93841.458      226.943    20727    226509.92     2.644248   -176.93069    4.1950914    180.66834    435.06296    23.499833    22.154928   0.50612182    435.56908   -1189.1196 
    3300   -103170.48   -93821.465    226.99584    20727    226562.53    36.267602    105.82344    16.561638   -13.582272    435.37388    23.494168    22.149587      0.35066    435.72454    -1210.155 
    3400    -103119.6   -93816.408    225.88312    20727    226597.37    51.106343    253.37647   -200.20547    100.14803    435.28036    23.498499     22.15367   0.39741852    435.67778   -1214.2386 
    3500   -103191.95   -93798.002    228.08684    20727    226663.65   -15.649347   -145.18021    231.20423   -132.97207    435.37955    23.499258    22.154386   0.34782646    435.72737   -1229.8907 
    3600   -103109.01   -93773.673    226.66375    20727    226667.13   -58.191566    47.739054   -60.312132   -162.00162    435.05601    23.508175    22.162792   0.50959731     435.5656   -1253.8295 
    3700   -103146.66   -93767.763    227.72129    20727    226685.66    72.272358    99.554868   -62.681729    179.94393    435.34719    23.501272    22.156284   0.36400529    435.71119   -1267.4613 
    3800   -103154.37   -93742.436    228.52345    20727    226616.15   -26.831033    8.6346467   -243.57362    154.44588    435.39144    23.496474    22.151761   0.34187948    435.73332   -1289.4246 
    3900   -103029.84   -93694.466    226.66468    20727    226617.43    67.735746   -28.691522    127.51897    104.37979    435.18063    23.502231    22.157189   0.44728448    435.62792   -1342.7968 
    4000   -103039.32   -93637.858    228.26925    20727    226812.27    80.533188    2.6495569    137.45109    101.49891    435.42174    23.505821    22.160574   0.32673003    435.74847   -1396.3985 
    4100   -102933.12    -93612.07    226.31688    20727    226658.18    32.564485    6.7061187    225.81739   -134.83006    435.39555    23.498542    22.153711   0.33982311    435.73538   -1421.3107 
    4200   -103016.18   -93589.797    228.87424    20727    226781.41   -26.412699   -243.84122     255.7473   -91.144172    435.46205    23.503134    22.158041   0.30657337    435.76863   -1440.1252 
    4300    -103056.7   -93576.012    230.19293    20727    226760.23   -31.650451    48.538554    189.53539    -333.0253    435.60845    23.498087    22.153282   0.23337456    435.84183   -1455.4661 
    4400   -103116.18   -93589.538    231.30864    20727     226816.1   -83.119539   -79.082887   -48.003437   -122.27229    435.64272    23.500057     22.15514   0.21623841    435.85896   -1440.5013 
    4500   -103018.93   -93566.227    229.51334    20727    226792.06    12.726664    114.11034   -179.31144    103.38109    435.60127     23.49993     22.15502   0.23696642    435.83823   -1467.7452 
    4600   -102958.81   -93581.189    227.69045    20727    226754.65   -16.307396    -45.38006   -163.57753     160.0354    435.52436    23.500066    22.155148   0.27541835    435.79978   -1453.3724 
    4700   -102858.35   -93532.263    226.43905    20727    226666.64    17.468179   -1.9173179    143.65572   -89.333863    435.35495    23.500076    22.155157   0.36012254    435.71508   -1506.0496 
    4800   -103087.98   -93584.945    230.73532    20727    226753.22   -72.044051   -154.37009   -45.169886    -16.59218    435.47192    23.501407    22.156412   0.30164157    435.77356   -1451.7418 
    4900   -102940.09   -93517.224     228.7888    20727    226733.16    56.193736    145.61506     168.3669   -145.40075    435.57105    23.497693    22.152911   0.25207425    435.82313   -1524.0982 
    5000   -103058.59   -93507.775    231.89556    20727    226651.05   -96.395721   -327.01059    52.220932   -14.397504    435.52479    23.494686    22.150076   0.27520604    435.79999   -1530.1507 
    5100   -102878.98   -93488.765    227.99605    20727     226685.1   -1.2608949    4.7345838    14.524538   -23.041807     435.3902    23.500082    22.155163   0.34250106     435.7327   -1552.9144 
    5200   -102995.44   -93463.681    231.43275    20727    226757.93   -23.191771    182.18572   -2.5638754   -249.19716    435.48367    23.501334    22.156343   0.29576353    435.77944   -1577.7112 
    5300      -102976   -93446.453    231.37918    20727    226731.92   -13.413058   -2.7166484   -24.508943   -13.013581    435.35209    23.503537    22.158421   0.36155514    435.71364   -1596.4895 
    5400   -102984.95     -93415.6    232.34554    20727    226834.48   -6.6070965   -61.148841    57.616833   -16.289282    435.58377      23.5026    22.157537   0.24571316    435.82949   -1626.1232 
    5500   -102852.32   -93349.189    230.73764    20727     226787.3    4.3176562   -129.27037   -85.183437    227.40677     435.2917    23.508038    22.162664    0.3917478    435.68345   -1695.2099 
    5600   -102914.43   -93361.307    231.95165    20727    226904.25   -27.183059   -17.661368   -186.99661     123.1088    435.53409    23.507555    22.162208   0.27055352    435.80465   -1677.5041 
    5700   -102839.64   -93373.853    229.83112    20727    226908.46    49.448662     16.62273   -140.03232    271.75558    435.47203    23.509448    22.163993   0.30158286    435.77362   -1669.7816 
    5800   -102883.21    -93396.98    230.32747    20727    226879.36   -26.266044   -26.226134   -72.038908    19.466908    435.27721      23.5132     22.16753   0.39899508     435.6762   -1644.7019 
    5900   -102875.09   -93387.195    230.36775    20727    226959.11   -32.440494    85.406165    -169.4042   -13.323442    435.51032    23.511038    22.165492   0.28243834    435.79276    -1653.482 
    6000   -102813.78   -93369.309    229.31355    20727    226820.12   -65.998646   -97.512521    295.23625   -395.71967    435.29616    23.509619    22.164154   0.38952187    435.68568    -1673.139 
    6100    -102901.6   -93374.499    231.31979    20727    226832.34    60.598771    277.61671    279.39429   -375.21469    435.62367    23.501412    22.156417   0.22576549    435.84943   -1675.9646 
    6200    -102820.6   -93340.674    230.17427    20727    226927.12   -91.367326   -185.70553    3.5975343    -91.99398    435.58853     23.50727     22.16194   0.24333706    435.83186   -1700.5827 
    6300   -102955.34    -93343.72    233.37199    20727    226899.32    42.677766    20.249571   -138.19517    245.97889    435.37934    23.511476    22.165905   0.34792835    435.72727   -1708.6165 
    6400   -102888.32   -93306.258    232.65415    20727    226784.73   -90.839213   -239.62019   -44.713909    11.816463    435.32716    23.506948    22.161636   0.37402211    435.70118    -1742.912 
    6500   -102833.06   -93334.073    230.63702    20727    226966.76    54.365922    66.863322   -57.935995    154.17044    435.50672    23.511531    22.165957   0.28424192    435.79096   -1718.4076 
    6600   -102871.76   -93333.142    231.59936    20727    226800.31    -41.31476   -44.715624    123.23188   -202.46054    435.45021    23.504434    22.159265    0.3124959     435.7627   -1719.4071 
    6700   -102812.82   -93297.324    231.03806    20727    226869.73    60.234979    119.73453    -77.19094    138.16134    435.44423    23.508192    22.162809   0.31548348    435.75972   -1758.4708 
    6800    -102846.6   -93297.442    231.85521    20727    226896.72    8.0447398    -78.34302    68.382567    34.094672    435.64088    23.504283    22.159123   0.21715962    435.85804   -1755.9427 
    6900   -102840.12   -93255.525    232.71572    20727    226941.57     33.37925    133.13605    221.13648   -254.13478    435.64085    23.506607    22.161314   0.21717715    435.85802   -1798.8475 
    7000   -102757.66   -93253.888     230.7533    20727    226822.41    33.228263    3.0186444    109.59449   -12.928342    435.37074    23.507724    22.162367   0.35223144    435.72297   -1804.7637 
    7100   -102808.03     -93252.1    232.01979    20727    226883.53    33.625511    82.872156    18.522972  -0.51859399    435.50196    23.507348    22.162013    0.2866183    435.78858   -1806.2755 
    7200   -102844.18   -93264.244    232.60271    20727     226822.2   -45.410166   -36.460395    3.6131795   -103.38328    435.58606    23.501902    22.156879   0.24456895    435.83063   -1791.9561 
    7300   -102771.84   -93228.875    231.70498    20727    226794.37    20.469963    188.29945   -92.949404   -33.940158    435.59117    23.500322    22.155389   0.24201327    435.83319   -1833.4195 
    7400   -102754.39   -93247.649    230.82539    20727    226640.47    17.080556   -239.08269    11.689542    278.63482    435.35483    23.498723    22.153882   0.36018303    435.71502   -1820.5432 
    7500   -102781.21   -93220.675    232.13145    20727    226873.57    111.83893    231.26724    37.623978    66.625571    435.59842     23.50423    22.159073   0.23839059    435.83681    -1846.706 
    7600   -102774.09   -93227.067    231.80351    20727     226815.6      24.6862    -89.96369    146.90126    17.121026    435.42217    23.505983    22.160726   0.32651484    435.74869    -1838.302 
    7700   -102846.62   -93205.379    234.09116    20727    226779.61    -6.045247    189.04144   -98.602095   -108.57509    435.26144    23.508457    22.163059   0.40687997    435.66832   -1861.9623 
    7800    -102868.4   -93223.603    234.17743    20727    226698.31   -41.336274   -67.516666   -32.597578   -23.894578    435.32373    23.502561      22.1575   0.37573492    435.69947   -1844.7504 
    7900   -102740.29   -93197.524    231.69998    20727    226701.56    86.051579     197.2774    81.514131   -20.636789    435.30207    23.503314     22.15821   0.38656381    435.68864   -1877.1494 
    8000   -102798.17   -93254.122    231.73125    20727    226759.24    26.791285     171.7805   -171.58492    80.178276    435.67527    23.496234    22.151535   0.19996382    435.87524   -1818.1891 
    8100   -102794.58   -93193.542    233.11495    20727    226846.35   -65.263359    10.393188    -16.93601   -189.24726    435.55861    23.503893    22.158756   0.25829519     435.8169   -1872.2539 
    8200   -102728.21   -93180.252    231.82618    20727    226935.82    56.062834    151.94262    221.93494   -205.68906    435.54026    23.509023    22.163593   0.26746769    435.80773   -1891.7146 
    8300   -102729.27   -93169.417    232.11487    20727    226864.48    2.0935428    67.272305    168.65255   -229.64423    435.41862    23.508611    22.163204   0.32829093    435.74691   -1900.2236 
    8400   -102742.95   -93143.237     233.0828    20727    226881.98   -38.448273    29.083242   -189.34415    44.916089    435.42924    23.509231    22.163788    0.3229779    435.75222   -1927.8068 
    8500   -102675.59   -93118.069    232.05847    20727    226821.97    16.988761    107.26925   -113.62336    57.320391    435.54938    23.502879      22.1578   0.26290783    435.81229   -1955.0916 
    8600   -102657.85   -93096.242    232.15768    20727    226846.03    19.804413   -49.678918    80.874878     28.21728     435.2653    23.511795    22.166206   0.40494757    435.67025   -1978.6156 
    8700   -102710.92   -93104.367    233.24876    20727    226679.87    -53.06246   -48.652364    -179.7821    69.247085    435.21932    23.504424    22.159256   0.42794104    435.64726   -1972.8324 
    8800   -102779.01   -93119.195    234.54218    20727    226707.07    19.962882    41.744591     -49.3672    67.511256    435.27435    23.504348    22.159185   0.40042409    435.67478     -1961.86 
    8900   -102722.97   -93084.441    234.02513    20727    226708.27   -22.822768   -150.95048    36.733032    45.749146    435.33176     23.50286    22.157782   0.37172116    435.70348   -1994.9339 
    9000   -102737.51   -93114.737    233.64259    20727     226656.8    5.1767129   -32.970367    100.33163   -51.831123    435.45988    23.496735    22.152007   0.30765853    435.76754   -1968.9604 
    9100   -102772.57    -93089.19    235.11413    20727    226939.26   -37.296998   -177.91985   -129.20315    195.23201    435.45774    23.511429    22.165861   0.30872929    435.76647   -1985.9273 
    9200   -102739.88   -93079.178    234.56361    20727    226900.93    64.914624   -131.77763    278.19384    48.327667    435.40307    23.510919     22.16538   0.33606648    435.73913   -2003.4426 
    9300   -102694.22   -93054.751    234.04807    20727    226814.79   0.72515361    95.941449    101.59952   -195.36551    435.41101    23.506242     22.16097   0.33209542     435.7431   -2026.7527 
    9400   -102754.74   -93115.366    234.04581    20727    226969.85     4.276808    14.557297   -352.13841    350.41153     435.5004    23.511862    22.166269   0.28739929     435.7878   -1964.4182 
    9500   -102703.45     -93061.4    234.11069    20727    227011.52    2.3378837   -46.543042   -38.243012    91.799706    435.62117    23.510761     22.16523   0.22701747    435.84818   -2016.6586 
    9600   -102697.09   -93012.128    235.15266    20727    227065.29    26.956132   -35.131485    207.32769   -91.327803    435.86095    23.507076    22.161757   0.10712525    435.96807   -2068.7215 
    9700   -102620.27   -92982.906    233.99686    20727    226945.79    33.714957    98.317368    182.17303   -179.34553    435.60895    23.507686    22.162332   0.23312723    435.84207      -2101.2 
    9800   -102661.07   -92943.138    235.95312    20727    226999.09   -10.323838    29.171855   -130.02907    69.885698    435.64627    23.509439    22.163985   0.21446557    435.86073   -2138.7406 
    9900   -102601.13   -92912.775    235.23512    20727    227002.99   -11.228299      -154.91    124.51207   -3.2869711    435.73666    23.507203    22.161876   0.16926846    435.90593   -2168.3461 
   10000   -102612.29   -92911.265    235.54271    20727    226946.75   -56.019934    220.89676   -167.85345   -221.10311    435.66357    23.506262    22.160989   0.20581581    435.86938   -2171.8848 
   10100   -102531.21   -92906.485    233.69016    20727    227108.35     24.35992    85.401317   -34.879813    22.558255    436.01677    23.505104    22.159897  0.029212882    436.04599   -2175.0732 
   10200   -102568.21   -92901.415    234.71154    20727    226823.44   -48.470971   -149.81611    20.063047    -15.65985     435.6179    23.501107     22.15613   0.22864943    435.84655   -2186.9129 
   10300   -102621.18   -92897.018    236.10437    20727    226957.57    25.322372   -97.789668    50.277008    123.47978    435.56821    23.509395    22.163943   0.25349359    435.82171   -2192.6742 
   10400   -102469.33   -92875.166    232.94798    20727    226966.84    93.491795    119.69314   -68.704407    229.48665    435.49325    23.511899    22.166304   0.29097501    435.78422   -2218.9921 
   10500   -102694.24   -92913.164    237.48638    20727     226833.9   -51.769235   -61.848607   -29.903925   -63.555173    435.47272    23.505566    22.160333   0.30123886    435.77396    -2177.366 
   10600   -102669.14   -92874.249    237.82166    20727    227042.94    59.907789    23.537523    158.64021   -2.4543671    435.71286    23.509913    22.164431   0.18116848    435.89403   -2218.1937 
   10700    -102564.3   -92844.287    236.00359    20727    226900.12    75.565216    20.808534    343.35546   -137.46835    435.57126    23.506337     22.16106   0.25196853    435.82323   -2253.3014 
   10800   -102565.04    -92858.67    235.67235    20727    227008.64    17.941487      81.2314   -88.580847    61.173908    435.71774    23.508006    22.162633   0.17872941    435.89647   -2234.3879 
   10900   -102607.28   -92816.934    237.71136    20727    227235.59   -47.138447   -86.029344   -112.64741    57.261409    435.79694    23.517616    22.171694   0.13912835    435.93607   -2266.9798 
   11000   -102545.72   -92799.952    236.62891    20727    226982.42   -9.5179033   -29.039861   -193.31629    193.80244    435.66024    23.508199    22.162815   0.20748142    435.86772   -2294.2056 
   11100    -102534.2   -92822.233    235.80832    20727    227029.27    2.9696935   -381.15613   -11.537954    401.60317     435.7443    23.508357    22.162965   0.16544787    435.90975   -2270.4906 
   11200   -102536.54   -92852.027    235.14184    20727    227064.39     34.51319   -40.647904    -22.81125    166.99872    435.70166    23.511326    22.165763   0.18676882    435.88843   -2242.1501 
   11300   -102490.95   -92792.805    235.47272    20727    227037.38    56.779237    142.88407     187.5178   -160.06415    435.84092    23.506172    22.160904   0.11714094    435.95806    -2303.862 
   11400   -102567.87   -92808.303    236.96418    20727    227112.87    5.1150145    11.863622   -118.48422    121.96564    435.84264    23.510032    22.164544   0.11628157    435.95892   -2286.5525 
   11500   -102575.17   -92802.772    237.27557    20727    226985.46    32.182183    231.42819   -18.231221   -116.65042    435.72968    23.506483    22.161198   0.17276203    435.90244   -2298.5099 
   11600   -102461.34   -92803.831    234.48619    20727    227098.32    -26.53908   -105.65856      -128.56    154.60132    435.73909    23.512072    22.166467   0.16805459    435.90715    -2290.901 
   11700   -102545.65   -92801.553    236.58836    20727    226906.48   -32.872672   -215.70514   -177.03035    294.11748    435.47301    23.509319    22.163871   0.30109451    435.77411   -2302.2205 
   11800   -102525.44   -92765.834    236.96497    20727    227139.91     28.03546   -71.106505    179.71542   -24.502532    435.67346    23.515997    22.170167    0.2008698    435.87433   -2333.8163 
   11900   -102502.41   -92772.908    236.23417    20727    226927.99   -28.883585   -139.41816    72.461068   -19.693665    435.49507    23.509838     22.16436   0.29006309    435.78514   -2331.0514 
   12000   -102465.94   -92734.915    236.27112    20727    227062.78   -37.573684    33.586321   -245.27869    98.971319    435.72759    23.510543    22.165025    0.1738061    435.90139   -2365.5153 
   12100   -102514.09   -92753.821    236.98103    20727    227067.77    49.366976   -30.915926   -141.13185    320.14871    435.42751    23.518901    22.172905   0.32384292    435.75136   -2354.0379 
   12200   -102506.47   -92746.526    236.97311    20727    226944.91    4.2380412    3.7251935    77.387687   -68.398757    435.68562    23.505572    22.160339   0.19478776    435.88041   -2363.8743 
   12300   -102510.62   -92714.732    237.84596    20727    227070.68   -13.312182   -126.11651   -131.55528    217.73524    435.71358     23.51133    22.165767    0.1808103    435.89439    -2391.217 
   12400   -102437.43   -92680.418    236.90208    20727    226964.36    5.0671658    66.565347    36.182845   -87.546694    435.82709    23.502764    22.157692   0.12405531    435.95114   -2428.1023 
   12500   -102491.58   -92683.786    238.13511    20727     227067.8    35.829009   -77.441135     129.2402    55.687958    435.52996    23.516137    22.170299   0.27261967    435.80258   -2425.9307 
   12600   -102583.28   -92759.595    238.52085    20727    226782.35   -55.372204    107.58013   -248.16797   -25.528768    435.40485    23.504727    22.159542   0.33517671    435.74002   -2357.1454 
   12700   -102501.45   -92734.818    237.13559    20727    227112.07     23.80504   -16.713077     226.4397   -138.31151    435.76117    23.512188    22.166576   0.15701408    435.91819   -2378.1481 
   12800   -102522.66   -92721.337    237.97797    20727    226938.96    52.598927    68.633928   -52.722892    141.88575    435.56221    23.508594    22.163187   0.25649452    435.81871   -2397.5085 
   12900   -102467.75   -92673.699    237.80134    20727    227089.34    13.946558    182.11683   -188.07756    47.800405     435.4734    23.518779     22.17279   0.30089882     435.7743   -2438.5899 
   13000   -102453.56   -92640.185    238.27062    20727    227047.23    62.031976    133.21831    166.80954   -113.93193    435.55109    23.514501    22.168757   0.26205631    435.81314    -2477.988 
   13100   -102408.86   -92709.229     235.5088    20727    227108.29   -36.299743   -131.53846    156.69991   -134.06067    435.62465    23.515677    22.169865    0.2252767    435.84992    -2402.644 
   13200   -102526.43   -92667.891    239.36724    20727    227088.26   -20.755202    35.521652    -164.9172    67.129942     435.6037    23.515205    22.169421   0.23574754    435.83945   -2447.9699 
   13300   -102535.41   -92642.637    240.19824    20727       227086   0.60373587    16.648174   -233.06409    218.22712    435.51929    23.517367    22.171458   0.27795351    435.79725   -2475.1673 
   13400   -102458.19   -92647.663    238.20132    20727    226974.78    13.926371   -72.194821   -132.49462    246.46855    435.49339    23.512306    22.166688    0.2909038     435.7843   -2472.2682 
   13500   -102463.58   -92606.435     239.3332    20727    227048.14    14.979451    15.242825    165.17437   -135.47884    435.49049    23.516184    22.170344   0.29235714    435.78284   -2512.4841 
   13600   -102426.21   -92626.508    237.93855    20727    226944.71   0.42933927    1.0018593    400.87071   -400.58455    435.70066    23.505156    22.159947   0.18726964    435.88793   -2496.9661 
   13700   -102399.23   -92634.901    237.07968    20727    227072.17    23.504234   -38.333877    463.48227   -354.63569     435.6366    23.513484    22.167798   0.21929972     435.8559   -2486.3617 
   13800   -102329.66   -92609.782    236.00043    20727    226949.84    3.4597522    139.52784    -43.96591   -85.182669     435.4599    23.511919    22.166322   0.30764838    435.76755   -2514.7484 
   13900   -102418.24   -92584.011     238.7769    20727    227076.44    4.9077921    31.635392    7.2134104   -24.125426    435.73096    23.511159    22.165606     0.172122    435.90308   -2540.2735 
   14000   -102495.58   -92606.778    240.10198    20727    226946.42   -38.158883    34.833651     166.3496   -315.65991    435.75479    23.503784    22.158653   0.16020453      435.915     -2519.09 
   14100   -102446.29   -92598.719    239.10085    20727     227025.9    10.481422    -148.3524    258.79569   -78.999029    435.70812    23.509159    22.163721   0.18354229    435.89166   -2529.9675 
   14200   -102446.82   -92572.719    239.74506    20727    226953.41   -89.975234   -19.635559   -128.26688   -122.02327     435.5595    23.509415    22.163962    0.2578496    435.81735   -2553.5277 
   14300   -102367.08   -92537.083    238.67401    20727    227115.92    19.142324    61.675795   -16.542431    12.293608     435.8389    23.510291    22.164788   0.11814867    435.95705   -2590.0898 
   14400   -102386.17   -92522.842    239.48333    20727    227092.35    62.906634    150.30697    153.51027   -115.09734    435.91668    23.506974     22.16166  0.079260129    435.99594   -2607.8796 
   14500   -102400.74    -92490.79     240.6155    20727    227057.05     6.290354     129.5092   -183.43373    72.795586    435.69031    23.511252    22.165694   0.19244447    435.88276   -2639.0133 
   14600   -102320.43   -92492.645    238.62031    20727    227071.16    18.270318     82.00661   -112.78507    85.589413    435.57578    23.515073    22.169296    0.2497088    435.82549    -2638.253 
   14700   -102280.12   -92508.184    237.26426    20727    227086.16    -15.14147   -10.425366   -46.604643      11.6056    435.74022    23.511413    22.165845   0.16749164    435.90771   -2621.9547 
   14800   -102293.48   -92463.933    238.66331    20727    227138.75   -21.864087   -26.477332    151.22998   -190.34491    435.80503    23.512386    22.166763   0.13508326    435.94012   -2665.4599 
   14900   -102375.92   -92487.682    240.08815    20727    227301.53   -43.085268   -45.313762   -18.863528   -65.078512    435.87156    23.519015    22.173013   0.10182076    435.97338   -2637.2382 
   15000   -102234.86   -92444.889    237.70237    20727    227006.73     7.118487  -0.20515765   -213.32337    234.88399    435.76102    23.506739    22.161439   0.15709066    435.91811   -2690.3478 
   15100   -102226.51   -92431.496    237.82471    20727    227255.22    73.146284    29.231295   -98.399326    288.60688     435.7639    23.519524    22.173492   0.15565174    435.91955   -2699.9113 
   15200   -102345.73   -92421.382    240.96495    20727    227057.02    -61.35249    14.645666    -38.99295   -159.71019    435.83239    23.507418    22.162079   0.12140523    435.95379   -2710.6178 
   15300   -102253.88   -92419.662     238.7765    20727    227120.98   -44.956636   -153.13263   -95.090379    113.35311    435.70651    23.514125    22.168402   0.18434555    435.89085   -2714.3181 
   15400   -102279.29   -92424.891    239.26652    20727    226855.84   -11.322665    136.71384   -46.718311   -123.96352    435.64005    23.502188    22.157149   0.21757688    435.85762   -2718.1243 
   15500   -102203.42   -92381.334    238.48198    20727    226886.05    51.640525    34.787559     342.6721   -222.53808    435.51526     23.50712    22.161798   0.27997133    435.79523   -2762.5302 
   15600   -102135.58   -92385.847    236.72537    20727    226860.44    -11.39169    31.797142   -115.34504    49.372824    435.56896    23.504344    22.159181   0.25311896    435.82208   -2757.0557 
   15700    -102296.1   -92400.005    240.27887    20727    226908.61   -37.403907   -68.684961   -6.6019259   -36.924835     435.2877    23.514433    22.168692   0.39374766    435.68145   -2743.5435 
   15800   -102263.53   -92411.715    239.20379    20727     226961.6    25.843939    -154.3301    77.623772    154.23814    435.28428     23.51727    22.171368   0.39546077    435.67974   -2733.2816 
   15900    -102218.5   -92369.902    239.12574    20727    226819.18   -17.073336   -41.371345   -56.249535    46.400872    435.27899    23.510033    22.164545   0.39810311     435.6771   -2778.4501 
   16000   -102190.59   -92355.051    238.80856    20727    226758.64    74.553435    83.169213    14.770253    125.72084    435.23128    23.508184    22.162801   0.42195804    435.65324   -2801.0219 
   16100   -102164.16   -92342.422    238.47363    20727    226850.88    15.202203    -29.07044   -39.538197    114.21525    435.16574    23.514736    22.168978    0.4547307    435.62047   -2807.3618 
   16200   -102242.42   -92325.254    240.79062    20727    226776.37   -22.051023   -136.41897   -116.25992    186.52582     435.1214    23.512071    22.166466   0.47690206     435.5983   -2828.6155 
   16300   -102258.24   -92306.939    241.61951    20727    226862.17   -22.310738   -223.79639   -32.170896    189.03507    435.37104    23.509776    22.164302    0.3520799    435.72312   -2845.9098 
   16400   -102135.71   -92257.226     239.8513    20727    227103.77    -17.95104    215.69063   -101.06814   -168.47561    435.62747    23.515367    22.169573   0.22386525    435.85133    -2888.601 
   16500   -102179.35   -92282.048    240.30827    20727    226871.74    85.286004    -92.66769     159.0858     189.4399    435.42549    23.508802    22.163384   0.32485287    435.75035   -2877.8476 
   16600   -102199.46   -92294.888    240.48481    20727    226897.08   -121.25823   -122.63827   -31.230446   -209.90597    435.31325    23.513145    22.167478   0.38097637    435.69422   -2852.6838 
   16700   -102279.18   -92285.769     242.6418    20727    226701.55   -5.4597117   -18.436219   -24.807386     26.86447    435.29963    23.503379    22.158272   0.38778704    435.68741   -2876.6195 
   16800   -102132.74   -92246.395    240.04229    20727    226940.24    8.6614362     44.64848   -168.38181    149.71764    435.15535    23.519647    22.173609   0.45992639    435.61527   -2910.0141 
   16900   -102119.79   -92215.752    240.47183    20727    226888.09    -32.26076   -203.47419   -7.2755273    113.96744    435.22914    23.514951    22.169181   0.42303043    435.65217   -2940.7442 
   17000   -102074.73   -92194.714    239.88851    20727    226935.18   -6.2861959    131.65114    -90.12932    -60.38041    435.39479    23.512917    22.167264   0.34020344      435.735   -2963.6855 
   17100   -102135.99   -92198.971    241.27272    20727    226955.25    26.528193    17.347426   -118.96125     181.1984     435.1644    23.520181    22.174111   0.45539925     435.6198   -2961.4175 
   17200   -102034.69   -92206.043    238.64134    20727    226771.23    45.832516   -32.429262   -83.693739    253.62055    435.32696    23.506253    22.160981   0.37411816    435.70108   -2958.3991 
   17300   -102129.66    -92213.32    240.77042    20727    226911.89   -49.540558   -119.37798   -124.51133     95.26763    435.28008    23.514808    22.169046   0.39756073    435.67764   -2945.9156 
   17400   -102134.43   -92229.603    240.49107    20727    226755.68   -15.081704    123.27055    28.050441   -196.56611    435.24343    23.507702    22.162347   0.41588259    435.65932    -2938.142 
   17500   -102095.97   -92171.835    240.95985    20727    226819.29   -24.149797   -86.582247    19.113021   -4.9801639    435.26607    23.510388    22.164879   0.40456512    435.67063   -2994.0627 
   17600   -102022.14   -92174.393      239.105    20727     226723.9    13.164697    163.13504   -6.2266627   -117.41429    435.18268    23.507696    22.162341   0.44625768    435.62894   -2996.1566 
   17700   -102124.55   -92163.679    241.85183    20727    226833.63    52.397898    58.152458   -68.729967     167.7712    435.48395    23.505249    22.160035   0.29562694    435.77957   -3006.7417 
   17800   -102008.22   -92167.292     238.9395    20727    226863.32   -4.3982877   -156.84501    72.298517    71.351629    435.15825    23.515583    22.169777   0.45847543    435.61672   -3001.0922 
   17900   -102119.12   -92156.216    241.90103    20727    226766.19    -46.92884   -3.3854277   -96.547159   -40.853932    435.15569    23.510617    22.165095   0.45975277    435.61545   -3016.2939 
   18000   -102006.24   -92151.796    239.26774    20727    226736.04    22.694213   -33.494036    188.15202   -86.575341    435.25673    23.506326    22.161049   0.40923678    435.66596   -3021.2625 
   18100    -102054.3   -92155.194    240.35217    20727    226693.17    16.248413   -87.816732   -72.998518    209.56049    435.27673    23.503563    22.158445   0.39923296    435.67597   -3020.3368 
   18200   -102122.87   -92183.563    241.32813    20727    226873.56   -57.701032   -69.247851   -107.33917    3.4839263    434.96965    23.521211    22.175083   0.55277273    435.52243   -2984.6871 
   18300   -102073.82   -92176.203    240.31591    20727     226556.5    9.2248078   -92.388067    12.966102    107.09639    434.98111     23.50446     22.15929   0.54704255    435.52816   -3002.7367 
   18400   -102118.64   -92142.777    242.21578    20727    226832.12    10.213206   -190.53161    49.896451    171.27478     435.1789    23.513408    22.167726   0.44815148    435.62705   -3032.4625 
   18500   -102157.62   -92116.846    243.79188    20727    226812.69 -0.032474329   -84.988791   -196.20089    281.09225    435.00489    23.517103     22.17121   0.53515497    435.54005   -3060.3112 
   18600    -102003.8    -92068.53    241.23021    20727    226765.28    25.099141    44.269075   -184.26935     215.2977    434.99065     23.51503    22.169255   0.54227537    435.53292   -3110.8262 
   18700    -101950.4   -92050.219    240.37816    20727    226733.05   -33.317191    63.816578   -210.47659    46.708443     434.7887    23.518819    22.172827   0.64325197    435.43195   -3127.7156 
   18800   -102065.24   -92087.556    242.26007    20727    226652.71    59.521077    5.1147416    156.73176    16.716733    434.67383    23.517758    22.171828   0.70068382    435.37452   -3098.8561 
   18900    -101992.4   -92079.664    240.68313    20727    226618.13   -48.184721    52.528439   -77.000066   -120.08254    434.86972    23.510667    22.165142   0.60274047    435.47246   -3102.5816 
   19000   -101944.64   -92072.107    239.70701    20727    226572.37    50.590645    129.07144    176.59688   -153.89638    434.77585    23.510831    22.165297   0.64967361    435.42553   -3117.8537 
   19100   -102094.64   -92044.475    244.01979    20727    226407.99   -60.215986   -68.323842   -330.07532     217.7512     434.3842    23.512894    22.167241   0.84549842     435.2297   -3146.1285 
   19200   -101945.92   -92076.964    239.61999    20727     226433.2    11.588335     29.35871    32.711825    -27.30553    434.38551    23.514167    22.168442   0.84484527    435.23035   -3118.6116 
   19300   -101928.37    -92050.29    239.84153    20727    226471.63    26.550206   -20.141042    135.49702   -35.705362    434.50755     23.51286    22.167209   0.78382437    435.29138   -3144.5909 
   19400   -101940.94   -92048.023    240.20191    20727    226337.49   0.80080928   -80.197197    -6.487547    89.087172    434.35445    23.510038    22.164549   0.86037459    435.21483   -3149.9107 
   19500   -101989.38   -92004.891    242.42526    20727    226631.65   -43.056932   -17.758962    64.657929   -176.06976    434.37822    23.524667     22.17834    0.8484901    435.22671    -3181.722 
   19600   -101974.37   -91994.192    242.32049    20727     226501.9   -11.778796    46.481647     -243.469    161.65097    434.48907    23.514931    22.169162   0.79306455    435.28214   -3200.7478 
   19700   -101832.48   -91976.988     239.2932    20727    226720.56    117.13053    183.44444    151.33611    16.611034    434.67464    23.521256    22.175125   0.70027873    435.37492   -3217.0257 
   19800   -101941.01   -92012.731    241.06033    20727    226259.37    51.186424    73.071486    137.85052    -57.36274    434.37276    23.505485    22.160257    0.8512216    435.22398    -3192.476 
   19900   -102088.33   -92053.533    243.64663    20727    226682.73    -1.638161    248.91926    88.134834   -341.96857    434.82952    23.515105    22.169326   0.62284174    435.45236   -3141.3097 
   20000   -101950.63    -92026.62    240.95678    20727    226320.19    72.697349    109.37332    60.437707    48.281024    434.61711    23.502035    22.157004   0.72904678    435.34615   -3182.4477 
   20100   -101906.07   -92005.753    240.38138    20727    226542.11    11.032269    29.242641    69.991191   -66.137024    434.75907    23.509715    22.164244   0.65806571    435.41713   -3194.1706 
   20200   -101919.78   -91972.328    241.52592    20727    226638.69   -66.048338   -197.61938    44.651322   -45.176952    434.73053    23.515497    22.169696   0.67233566    435.40286   -3220.1818 
   20300   -101941.36   -91985.148     241.7386    20727     226559.8   -28.496538   -84.223687   0.23836069   -1.5042883    434.47133    23.518417    22.172448   0.80193463    435.27327   -3213.9346 
   20400   -101983.97   -91964.452    243.27582    20727    226577.45    -36.93965    63.014728    45.748662   -219.58234     434.5484    23.517247    22.171346   0.76339823     435.3118    -3234.722 
   20500   -101867.84   -91948.951    240.83237    20727    226639.27    42.610046    103.04576   -39.527276    64.311652    434.97268    23.508981    22.163553   0.55126118    435.52394   -3252.6893 
   20600   -101910.46   -91916.428    242.65703    20727    226708.53   -54.870289    52.744787   -266.08184    48.726184    434.82634    23.516529    22.170669   0.62443067    435.45077   -3278.4116 
   20700    -101822.4   -91915.088    240.55141    20727    226602.93    117.41019    78.364104    87.907405    185.95906    434.82388    23.511118    22.165567    0.6256618    435.44954    -3291.845 
   20800   -101766.03   -91866.895    240.35276    20727    226659.63    25.825911    120.34201    65.543725   -108.40801     434.9648     23.51025    22.164749    0.5551982       435.52   -3333.5272 
   20900   -101922.23   -91871.967    244.02212    20727    226775.14    -40.36995   -22.191982    21.773763   -120.69163    435.15649     23.51106    22.165512   0.45935543    435.61584   -3326.1004 
   21000   -101836.79   -91865.491    242.10499    20727     226743.5   -45.217179   -100.34158    8.9734565   -44.283412    435.09516    23.511076    22.165528   0.49002162    435.58518   -3331.4588 
   21100    -101944.2   -91878.624    244.39399    20727    226699.83   -36.928124   -201.22869   -10.286637    100.73096    435.06206    23.509706    22.164237   0.50657083    435.56863   -3324.3783 
   21200      -101850   -91895.081    241.70717    20727     226606.1   -32.653678    133.76695    29.592007   -261.31999    435.06447    23.504781    22.159593   0.50536322    435.56984   -3309.2017 
   21300   -101861.04   -91872.998    242.51153    20727    226472.44    101.67058    106.76418    306.82997    -108.5824    434.96381    23.500567     22.15562   0.55569345    435.51951   -3343.6948 
   21400   -101755.97   -91848.862     240.5463    20727    226702.26    10.016198    1.7787702    26.270487    1.9993377    435.08827    23.509124    22.163688   0.49346385    435.58174   -3356.9197 
   21500   -101823.02   -91842.201    242.33597    20727     226635.7   -21.750187   -156.80366   -125.56249    217.11558    435.08308    23.505813    22.160566   0.49606167    435.57914   -3365.5237 
   21600   -101872.22   -91852.361    243.28397    20727    226705.08   -24.617394    78.937575   -149.51771    -3.272042    435.07718     23.50957    22.164108   0.49900856    435.57619   -3355.3002 
   21700   -101896.45   -91852.164    243.87699    20727    226785.09    2.2430482    52.606545   -75.298046    29.420646    435.19309    23.510587    22.165066   0.44105699    435.63414   -3356.9397 
   21800   -101736.33   -91824.985    240.64932    20727    226768.48    36.563505    71.436615   -116.59393    154.84783    434.95149    23.516254     22.17041   0.56185646    435.51334   -3385.0358 
   21900   -101826.88   -91820.734     242.9511    20727    226734.95   -67.111824   -168.43587    135.27918   -168.17878    434.93346    23.515003     22.16923   0.57086772    435.50433   -3388.4854 
   22000   -101851.64    -91845.55    242.94963    20727    226920.14    -21.34741   -46.223286   -100.20683    82.387889    435.02007    23.522262    22.176074   0.52756421    435.54764   -3363.4132 
   22100   -101867.66   -91846.862    243.30678    20727    226637.29   -13.991447   -74.741675    21.430019    11.337316    434.93548    23.509884    22.164404   0.56986211    435.50534   -3368.8486 
   22200   -101802.52   -91752.235    244.02276    20727    226870.49    43.880149    199.87574    125.73076   -193.96606    435.16661    23.515728    22.169914   0.45429344    435.62091   -3462.2747 
   22300   -101722.93   -91787.997    241.22201    20727    226654.08   -21.882443    102.26847   -3.6129577   -164.30284    435.08026    23.506842    22.161536   0.49747151    435.57773   -3428.5579 
   22400   -101792.56   -91763.023    243.51899    20727    226605.96    13.758804    112.44621   -137.32084    66.151044    434.85974    23.510305    22.164801   0.60772808    435.46747   -3457.8152 
   22500   -101703.68   -91758.733    241.46503    20727    226632.73    19.702053     18.31971   -270.23871    311.02515     434.7401    23.514929     22.16916   0.66754863    435.40765   -3463.9684 
   22600   -101783.36   -91801.875    242.35235    20727    226665.27    18.633208   -67.954218   -90.231801    214.08564    435.07414    23.507588    22.162239   0.50052898    435.57467   -3420.5629 
   22700    -101745.2   -91787.572    241.77296    20727    226602.84   -2.2536398    95.870074   -34.799577   -67.831416    434.86763    23.509931    22.164448   0.60378545    435.47141   -3437.4273 
   22800    -101797.8   -91761.329    243.68728    20727    226603.92    16.834757     16.78053    190.47349   -156.74975    434.82672    23.511093    22.165543   0.62424014    435.45096   -3464.6452 
   22900   -101802.56   -91746.553    244.16174    20727    226678.47   -55.730704   -130.66438   -133.29926    96.771535    434.95854    23.511396     22.16583   0.55832816    435.51687   -3476.2528 
   23000   -101786.97   -91720.266    244.42132    20727    226844.45   -42.469673   -114.04306   -21.257397    7.8914345    435.20599    23.513315    22.167638    0.4346027     435.6406   -3498.8517 
   23100   -101640.94   -91688.891    241.63746    20727     226741.9    -16.39137     21.13227   -52.286833   -18.019546    434.97525    23.514234    22.168505   0.54997651    435.52522   -3533.4357 
   23200   -101765.38   -91686.509    244.71682    20727    226760.25    -65.65437   -214.05616   -110.65968    127.75273    435.00928    23.514266    22.168535   0.53295947    435.54224   -3535.7324 
   23300   -101685.83   -91657.084    243.49976    20727    226579.27   -2.6731955    162.48435    71.253293   -241.75723    434.93033    23.507013    22.161697   0.57243378    435.50277   -3575.7335 
   23400   -101634.79   -91611.422    243.36913    20727    226952.62   -20.160435    130.26713    77.640831   -268.38926    434.96421    23.525456    22.179085   0.55549397    435.51971   -3609.5294 
   23500   -101644.98    -91634.76    243.05006    20727    226752.23    67.847826    121.01858    -68.07894    150.60384    434.70415    23.522101    22.175921   0.68552547    435.38967   -3597.2381 
   23600    -101672.9   -91614.236    244.22619    20727    226759.64    2.9702725   -147.62107    151.93084    4.6010484    434.88252     23.51766    22.171735   0.59633762    435.47886   -3616.3443 
   23700   -101512.67   -91573.553     241.3237    20727    226658.82   -34.285698    66.096846   -119.66225   -49.291695    434.74967    23.516024    22.170192   0.66276254    435.41244   -3657.4049 
   23800   -101678.07   -91602.286    244.64174    20727     226551.7    7.7673654   0.47148051   -214.69225    237.52287     434.6185    23.514014    22.168298   0.72835238    435.34685   -3636.2501 
   23900   -101497.78   -91574.965    240.92781    20727    226431.99   -67.855537    -52.09052   -110.18314   -41.292946    434.58307    23.508759    22.163343   0.74606585    435.32913   -3664.0922 
   24000   -101680.53   -91552.704    245.90543    20727    226457.36   -32.332546    24.224646   -131.45613     10.23385    434.67115    23.507694    22.162339   0.70202392    435.37318   -3689.1733 
   24100   -101675.46   -91541.525    246.05386    20727    226488.65   -21.939746   -1.5409773   0.17484161   -64.453102    434.76506    23.506779    22.161476    0.6550706    435.42013   -3702.1942 
   24200   -101547.66   -91520.678    243.45703    20727    226465.87   -14.795848   -137.82658       2.3764    91.062636     434.6914    23.507588    22.162239   0.69189765     435.3833   -3721.8395 
   24300   -101637.96   -91526.936    245.49756    20727    226329.51   -62.332758    53.351974   -189.37022   -50.980025    434.50881    23.505447    22.160221   0.78319608      435.292   -3721.3041 
   24400   -101530.68   -91490.341    243.78129    20727    226438.49    57.346461   -144.00319    118.23158    197.81099    434.41059    23.513763    22.168061   0.83230417     435.2429   -3760.5416 
   24500   -101556.94   -91488.375    244.46652    20727    226287.62    14.547053    27.467548    57.496313   -41.322702    434.28078    23.509441    22.163987   0.89720994    435.17799   -3766.7455 
   24600   -101624.63   -91457.889    246.85021    20727    226201.91   -65.497401   -58.516562   -61.961668   -76.013973    434.20989    23.506907    22.161598   0.93265705    435.14254   -3797.0678 
   24700   -101536.81   -91484.224    244.07859    20727    226135.93   -96.839738   -224.53885   -189.99012    124.00975    434.20967    23.503485    22.158371    0.9327651    435.14243   -3770.2572 
   24800   -101459.69   -91449.679    243.04484    20727     226187.6    56.708563    11.244384     8.832661    150.04864    433.91317    23.514199    22.168472    1.0810138    434.99419   -3812.2694 
   24900   -101570.91   -91458.007    245.54302    20727    226195.96   -9.8083244    158.06996    116.00799   -303.50292    433.86903     23.51583     22.17001    1.1030873    434.97211   -3803.1815 
   25000   -101580.24   -91436.199    246.29928    20727    226189.48   -11.577437   -6.8675632    4.4906332    -32.35538    434.02283    23.511327    22.165764    1.0261859    435.04901   -3826.4819 
   25100   -101449.78   -91453.568    242.70998    20727    226045.57    6.0889669    102.15673   -236.21352    152.32369    433.96335    23.505457     22.16023    1.0559274    435.01927    -3813.208 
   25200   -101562.68   -91445.321     245.6513    20727    226018.86   -27.382522   -144.58625    94.566914   -32.128229    433.92294    23.505162    22.159952    1.0761293    434.99907    -3822.726 
   25300   -101478.52   -91390.609    244.93639    20727    226167.75   -54.193338   -92.680445    -77.97877    8.0792001    433.77475    23.516919    22.171036    1.1502249    434.92498    -3873.025 
   25400   -101459.57   -91393.268    244.41161    20727    226291.07    35.008778    59.956796    360.63248   -315.56294    434.15973    23.512897    22.167245   0.95773296    435.11747   -3872.6548 
   25500    -101501.7   -91400.675    245.25466    20727    226244.62    61.121959    72.187902   -65.654586    176.83256    433.98908    23.515106    22.169327    1.0430595    435.03214   -3869.3686 
   25600   -101466.51   -91389.061    244.68227    20727    226100.89   -23.254012   -74.971147   -187.66569    192.87481    433.89024    23.510313    22.164809    1.0924808    434.98272   -3880.0062 
   25700   -101429.64   -91363.458    244.40872    20727    226219.65   -13.087113    98.319534   -179.86696    42.286088    433.86241    23.517241     22.17134    1.1063973     434.9688   -3904.8144 
   25800   -101556.58   -91427.691    245.93122    20727     225918.1    -1.324286    19.596366    53.898393   -77.467618     433.7536    23.504509    22.159337    1.1607996     434.9144   -3850.2533 
   25900   -101535.98   -91410.132    245.85742    20727     226129.7   -11.748864    13.208045    124.15668   -172.61132    433.89188    23.511767    22.166179    1.0916621    434.98354   -3864.3109 
   26000   -101543.59   -91390.977    246.50733    20727    225710.35   -12.182763   -24.159345    110.96164   -123.35058    433.37181    23.504046      22.1589    1.3516947    434.72351    -3897.704 
   26100    -101512.1   -91392.605    245.70311    20727    225962.21    87.325694    2.7630473    317.23238   -58.018348    433.49681    23.513765    22.168063     1.289197      434.786   -3895.2289 
   26200   -101456.61    -91378.36    244.70181    20727    225828.16   -62.033421   -90.250958   -109.88066    14.031357    433.41369    23.509043    22.163611    1.3307525    434.74445   -3905.3431 
   26300    -101466.4   -91422.944    243.85686    20727    225846.21   -57.018916   -99.588638    -424.2742    352.80609    433.38097     23.51087    22.165333    1.3471159    434.72808   -3860.9995 
   26400   -101565.21   -91393.126    246.98008    20727    225961.85     66.25299   -30.341549     184.6666    44.433922    433.57322    23.511674    22.166091    1.2509902    434.82421   -3896.2003 
   26500   -101448.04   -91383.821    244.36111    20727     225863.6     24.47887    102.97775    47.307014   -76.848154    433.62884    23.505054    22.159851    1.2231788    434.85202   -3905.0568 
   26600   -101517.84   -91349.468    246.89004    20727    225868.69   -13.956574   -75.213424    128.64707   -95.303367    433.50937    23.508558    22.163154     1.282916    434.79228   -3940.1892 
   26700   -101403.12   -91341.644     244.2945    20727     226044.5    5.2146837   -18.025117    44.040551   -10.371383    433.60599    23.515085    22.169307    1.2346072    434.84059   -3943.6948 
   26800   -101449.08   -91331.223    245.66331    20727     226190.7    86.153393    143.39622    26.018318    89.045637    433.86313    23.515716    22.169902    1.1060342    434.96917   -3956.6917 
   26900   -101472.87   -91323.195    246.43589    20727    226061.08   -31.438933    4.1860471    66.597628   -165.10047    433.81323     23.51033    22.164824    1.1309842    434.94422   -3960.2082 
   27000   -101448.83   -91330.563    245.67333    20727     226084.2   -92.650919   -189.88846    70.641006    -158.7053    433.88911    23.509476    22.164019     1.093044    434.98216   -3950.9976 
   27100   -101352.44   -91293.411    244.23498    20727     226291.1    11.892795   -67.443675   -10.361038     113.4831    433.96173    23.518262    22.172303    1.0567355    435.01846   -3987.9348 
   27200   -101345.55   -91249.642    245.13059    20727    226086.65    22.272016   -60.500313   -64.002148    191.31851    433.81539    23.511601    22.166023    1.1299056    434.94529   -4039.0934 
   27300   -101336.86   -91290.785    243.92042    20727    226219.63    98.266831    27.884849    232.68561     34.23003    433.98375    23.513952    22.168239    1.0457256    435.02947   -3999.0882 
   27400   -101319.54   -91241.265    244.70229    20727    226236.88    -11.58926    109.44954   -69.770083    -74.44724    433.96668    23.515311     22.16952    1.0542593    435.02094    -4043.952 
   27500   -101403.37   -91227.273    247.07751    20727    226209.31    -8.842753   -24.950855   -39.727519    38.150115    434.24211    23.506419    22.161138   0.91654407    435.15866    -4061.133 
   27600   -101335.26   -91215.667    245.70544    20727    226253.13     31.81337    195.85381   -153.41506    53.001364    433.99322    23.515436    22.169638    1.0409885    435.03421   -4074.3199 
   27700   -101382.62   -91213.151    246.91666    20727    226241.58   -8.8708984   -121.98997   -145.81643     241.1937    433.95298    23.515926      22.1701     1.061108    435.01409    -4075.925 
   27800   -101406.45   -91193.506    247.97221    20727    226022.39    13.621565   -62.389824    10.974299     92.28022    433.69209      23.5116    22.166022    1.1915526    434.88365   -4103.5568 
   27900   -101242.52   -91169.184    244.58255    20727    226165.08   -3.9470032   -9.7602783    108.04189   -110.12262    433.71946    23.518279    22.172318    1.1778712    434.89733   -4122.6627 
   28000   -101391.95   -91156.527    248.51802    20727    226192.74   -11.743618   -40.815786   -118.00983    123.59476     433.9377    23.513802    22.168097    1.0687475    435.00645   -4135.9171 
   28100   -101336.86   -91159.117    247.11738    20727       226127   -61.965635   -186.47806    26.612179   -26.031025    433.68291     23.51729    22.171386    1.1961475    434.87905    -4135.063 
   28200   -101283.53   -91136.628    246.36862    20727    226288.86    -67.83843    12.271462   -286.39865    70.611895    433.80077    23.522509    22.176306    1.1372136    434.93799   -4152.4911 
   28300   -101329.82   -91115.614    248.00279    20727    226499.28      81.0978   -25.058738    159.40009    108.95205    434.05514    23.526546    22.180112    1.0100301    435.06517   -4176.2279 
   28400    -101240.5   -91073.367    246.85983    20727    226344.17   -54.677022   -174.34158    -192.3617    202.67222    433.98754    23.520321    22.174243    1.0438295    435.03137    -4216.774 
   28500   -101297.56   -91106.895     247.4313    20727    226257.67   -10.329839    10.389587    -156.9739    115.59479    433.79993    23.520911      22.1748    1.1376364    434.93756   -4188.8471 
   28600   -101277.54   -91045.967    248.42435    20727     226254.3   -40.730376     33.68392   -198.59456    42.719515    433.70532    23.523301    22.177053    1.1849387    434.89026   -4250.4427 
   28700   -101262.62   -91084.052     247.1375    20727    226259.42    10.806577    211.53753    91.720906    -270.8387    433.85946    23.519388    22.173364    1.1078704    434.96733   -4216.6868 
   28800   -101300.34   -91091.175    247.88049    20727    226429.31     142.6064    329.85439    79.590815     18.37399      434.292    23.516497    22.170638   0.89159869     435.1836   -4209.3903 
   28900   -101145.93   -91050.393    245.12159    20727    226420.57   -55.303549   -45.017674   -198.45096    77.557985    434.29888    23.515856    22.170035   0.88815801    435.18704   -4240.3682 
   29000   -101183.32   -91014.593    246.89854    20727    226263.96    -63.84377   -63.948659    60.618552    -188.2012    433.98797    23.516142    22.170303     1.043617    435.03158    -4283.154 
   29100   -101260.05   -91030.197    248.38279    20727    226176.73   -9.8728912    149.55507    72.390872   -251.56461     433.9033    23.513902    22.168192    1.0859517    434.98925   -4273.0216 
   29200   -101259.39   -91051.052    247.86036    20727    226359.94   -14.941809    194.00643   -72.041072   -166.79079    434.22225    23.514782    22.169022   0.92647578    435.14872   -4248.1754 
   29300   -101317.58   -91023.068    249.95271    20727    226375.26    -69.77504   -100.13471   -211.80986    102.61945    434.32879    23.512694    22.167053   0.87320575    435.20199   -4273.4649 
   29400   -101224.32   -91009.217    248.02457    20727    226395.63     40.09542    83.072138   -168.41539    205.62951    434.34641    23.513275    22.167601   0.86439555     435.2108   -4293.3284 
   29500   -101185.43   -90967.696    248.08841    20727    226344.22   -119.60372   -1.9152992   -401.60487    44.708995    434.57593    23.504395    22.159229   0.74963271    435.32557   -4328.0756 
   29600   -101192.62   -90974.935    248.08735    20727    226381.96   -17.768953     -59.3715   -28.092548     34.15719    434.39042    23.511374    22.165809   0.84239141    435.23281    -4329.053 
   29700   -101121.85   -90940.872      247.196    20727    226428.81    20.000282   -56.108549   -102.63531    218.74471     434.5443    23.509643    22.164176   0.76544912    435.30975   -4361.4406 
   29800   -101123.47   -90876.501    248.79825    20727    226412.42   -24.474155   -142.29567     181.9931    -113.1199    434.57333    23.508007    22.162634   0.75093666    435.32426   -4425.3798 
   29900   -101031.21   -90858.009    247.00728    20727    226527.61    11.800973   -67.920682   -58.333704     161.6573    434.65212    23.511855    22.166262   0.71154181    435.36366   -4443.0692 
   30000   -101197.71   -90891.966    250.22536    20727    226404.46   -75.293167   -75.843797    8.3325988    -158.3683    434.58258    23.507343    22.162008   0.74631213    435.32889   -4410.5162 
   30100   -101048.84   -90891.322    246.62646    20727     226438.3  -0.96703406   -1.0080415   -238.42601    236.53295    434.64057    23.507531    22.162186   0.71731742    435.35788   -4413.3314 
   30200   -101080.64   -90897.087    247.25863    20727    226392.95    20.374718    131.37585   -150.39997    80.148272    434.30648    23.514216    22.168488   0.88435868    435.19084   -4411.8792 
   30300   -101178.24   -90875.285    250.15751    20727    226293.49   -33.904871   -155.38112    72.280135   -18.613624    434.57871    23.501686    22.156675    0.7482437    435.32696   -4436.7706 
   30400   -101096.73   -90909.457    247.34883    20727    226470.61   -14.568013   -140.98058   -121.85091    219.12745    434.54349    23.511835    22.166243   0.76585311    435.30935    -4399.048 
   30500   -101165.76   -90934.558    248.41535    20727    226506.95    54.413894    110.35477    12.039156    40.847754    434.75826    23.507912    22.162545   0.65847005    435.41673   -4379.3504 
   30600   -101113.95   -90917.411    247.57382    20727    226409.98     124.2705    102.25392    250.61288    19.944699    434.57107    23.507941    22.162572   0.75206681    435.32313   -4402.6531 
   30700      -101149    -90880.33    249.32518    20727    226486.64   -13.340632    152.01721   -16.476148   -175.56295    434.69747    23.508502    22.163101   0.68886701    435.38633   -4430.8191 
   30800   -101121.98   -90855.051    249.28279    20727    226554.56   -14.838867   -122.50618    87.662235   -9.6726601     434.5795    23.515218    22.169432   0.74784839    435.32735    -4455.213 
   30900   -101129.52   -90861.812    249.30182    20727    226541.99    25.541985    -179.8778    56.944331    199.55942    434.46952    23.517541    22.171623   0.80284129    435.27236   -4452.7117 
   31000   -101057.74   -90850.837    247.82548    20727    226662.24    21.843725   -69.165514   -46.004691    180.70138    434.52453    23.522293    22.176103   0.77533616    435.29986    -4462.298 
   31100   -101072.42   -90847.962    248.25171    20727    226532.56   -29.336545    233.71675   -165.49241   -156.23397    434.69184    23.511037    22.165491   0.69168141    435.38352   -4467.5299 
   31200   -101107.35   -90877.253    248.38864    20727    226422.03    26.083342    131.42443    25.412351   -78.586754    434.68653    23.505444    22.160218   0.69433518    435.38086   -4445.4352 
   31300   -101117.92   -90830.821     249.7727    20727    226503.22  -0.26700488   -86.819009    18.614505    67.403489    434.66446    23.510255    22.164753   0.70536918    435.36983   -4490.3577 
   31400      -101089   -90849.595    248.61465    20727    226452.56    -75.78947   -149.74424    221.91467   -299.53884    434.43294    23.513889     22.16818   0.82112909    435.25407   -4470.1513 
   31500   -101233.89   -90842.944    252.29414    20727    226408.83    53.444401    162.02321   -28.842583    27.152582    434.53656    23.508815    22.163396   0.76932019    435.30588   -4487.5929 
   31600   -101092.96   -90849.236     248.7196    20727    226316.03   -41.540915   -62.805967   -213.95332    152.13654     434.2795    23.510952    22.165411   0.89785206    435.17735   -4477.1975 
   31700   -101095.14   -90780.756    250.43522    20727     226538.7    25.335846   -57.261275    221.76718   -88.498362    434.39044    23.519511     22.17348   0.84237801    435.23282   -4544.7965 
   31800   -100967.88   -90760.733    247.83128    20727    226311.23   -91.246354    24.788848   -143.79357   -154.73434    434.09828    23.515609    22.169802   0.98845903    435.08674   -4565.3103 
   31900   -101110.34    -90776.55    250.90641    20727    226425.99   -37.180067   -129.45777   -141.68434    159.60191    434.22014     23.51827     22.17231   0.92752916    435.14767   -4551.0159 
   32000   -101073.65   -90811.946    249.15611    20727    226152.37    -49.80933    61.895562   -252.43107    41.107521    433.95058    23.511354     22.16579    1.0623104    435.01289   -4521.9693 
   32100   -101134.54   -90775.584    251.51723    20727    226324.07   -15.103118   -134.67805    184.04844   -94.679747    433.99764    23.519003    22.173001    1.0387794    435.03642   -4557.8929 
   32200   -101052.75   -90790.716    249.16411    20727    226299.41    32.469459    81.521478    100.12325   -84.236349    433.87414    23.521068    22.174948    1.1005283    434.97467   -4546.1265 
   32300   -101040.11   -90762.131    249.55117    20727    226410.83    46.648509    165.77304    63.771027   -89.598538    434.11957    23.520207    22.174136   0.97781659    435.09738   -4574.2736 
   32400   -101097.19   -90776.523    250.58758    20727    226163.45   -99.529326   -315.55154   -102.42367    119.38723    434.02198    23.509996     22.16451    1.0266097    435.04859   -4561.6025 
   32500    -100956.8   -90744.285    247.96183    20727    226113.81     -29.4535   -68.504718    147.61462    -167.4704    433.86445    23.511683      22.1661     1.105373    434.96983   -4596.5111 
   32600   -100983.74   -90763.771    248.14279    20727    225993.04    40.507462    236.70084    166.77646   -281.95492    433.62934    23.511775    22.166187    1.2229288    434.85227   -4588.3301 
   32700   -101077.43   -90772.617    250.20271    20727    226148.03   -7.3376226   -50.684824   -104.88448    133.55644    433.83741    23.514196    22.168469    1.1188959     434.9563   -4573.0124 
   32800   -101025.59   -90720.307     250.2141    20727    226031.04    10.381795   -35.604737   -127.10626    193.85638     433.6371    23.513541    22.167852    1.2190497    434.85615   -4631.9574 
   32900   -101061.25   -90756.912    250.19132    20727    226021.98    85.379424    121.65786    85.605986    48.874427     433.7564    23.509836    22.164359    1.1593989     434.9158   -4599.9606 
   33000    -100963.1   -90748.002    248.02443    20727    225980.98   -47.361192   -227.50352    196.36932   -110.94938    433.85243    23.505102    22.159896    1.1113828    434.96382   -4602.6923 
   33100    -101050.8   -90733.297    250.51096    20727    225906.83    51.988411   -104.13007   -154.72397    414.81927    433.61195    23.507762    22.162403    1.2316273    434.84357   -4625.8818 
   33200   -101015.07   -90699.733    250.45835    20727    225696.56    20.078106   -30.978517    56.491799    34.721038    433.29158    23.505504    22.160274    1.3918114    434.68339    -4668.286 
   33300   -100958.51   -90686.143    249.41503    20727    225885.42    35.096226    94.498876    124.95682   -114.16701    433.26904    23.515948    22.170121    1.4030802    434.67212   -4676.3929 
   33400   -100963.33   -90679.316    249.69782    20727    225651.32   -70.531357    60.893805    -205.7954   -66.692474    433.13801    23.507314    22.161981     1.468593    434.60661   -4686.6674 
   33500   -101052.59   -90655.072    252.45368    20727    225883.16   -22.281726    -148.6029   -44.330197    126.08792    433.29635    23.515089    22.169311    1.3894242    434.68578   -4709.0741 
   33600   -100841.64   -90614.284    248.32212    20727    225698.15   -95.324604   -44.095585   -88.748952   -153.12928    433.32555    23.504665    22.159484    1.3748275    434.70037   -4751.9763 
   33700   -100970.86   -90587.885    252.10063    20727    225779.66   -8.6473903    136.50019   -19.599192   -142.84317    433.18818    23.512636    22.166999    1.4435114    434.63169   -4782.6492 
   33800   -100981.66   -90637.286    251.16328    20727     225791.5   -75.441999   -39.043745    67.160978   -254.44323    433.23405    23.512008    22.166406    1.4205739    434.65463   -4730.3244 
   33900   -101059.45   -90661.291    252.46924    20727    225841.52   -39.510091   -206.57251    140.21038   -52.168146    433.06755    23.519132    22.173122    1.5038233    434.57138   -4710.1371 
   34000   -101002.81   -90727.894    249.47691    20727    225744.36   -5.1048905    196.02795   -177.42529   -33.917333    433.02131    23.515328    22.169536    1.5269472    434.54825   -4648.8915 
   34100   -100951.23   -90668.528    249.66577    20727    225655.13   -4.7672269    36.150642   -128.32816    77.875841    433.25415    23.504361    22.159197    1.4105236    434.66468   -4709.6915 
   34200   -100998.13   -90650.696    251.23768    20727    225707.89    108.86283    171.52327    205.38109   -50.315864    432.89059    23.516978    22.171092    1.5923065    434.48289    -4734.303 
   34300   -100911.72   -90675.347    248.54095    20727    225692.98   -26.686046   -18.979049   -152.11714    91.038052    432.94174    23.514812     22.16905    1.5667315    434.50847   -4702.9731 
   34400   -100958.24   -90633.913    250.67665    20727    225975.96   -13.306735   -56.229759   -123.90778    140.21733    433.04413    23.526768    22.180321    1.5155375    434.55966    -4736.377 
   34500   -100943.71    -90641.29    250.14467    20727    225656.78     10.96425    126.44432   -180.70794     87.15637    432.99915    23.511367    22.165802    1.5380226    434.53718    -4740.929 
   34600   -100956.27   -90619.194    250.98611    20727     225741.3    -125.4876   -345.94671   -219.63812    189.12203    432.88123    23.518973    22.172972    1.5969861    434.47821   -4757.8391 
   34700   -100899.45   -90616.685    249.66737    20727     225779.9   -10.004948   -67.822496   -30.645476    68.453129    432.92538    23.519784    22.173737    1.5749101    434.50029   -4762.9361 
   34800   -100803.69   -90604.094    247.64798    20727    225776.79   -26.962687    24.431253   -494.51939    389.20007    432.66969    23.526571    22.180136    1.7027531    434.37245   -4776.3697 
   34900   -100950.72   -90624.873    250.71341    20727    225810.09    -76.25478    23.078685    123.24443   -375.08745    432.98341     23.51978    22.173734    1.5458964     434.5293   -4754.0261 
   35000   -100942.43   -90579.775    251.60708    20727     225855.8   -41.952062    63.907776    55.812624   -245.57659    433.05714    23.520158     22.17409    1.5090284    434.56617   -4801.3733 
   35100   -100839.46   -90574.244    249.24131    20727    225841.18    181.32045    204.71081    5.4127563     333.8378    433.04755    23.519657    22.173618    1.5138264    434.56137   -4818.5715 
   35200   -100877.43   -90530.722    251.21989    20727    225857.45    35.903452    107.28333    27.405532    -26.97851    432.95352    23.523059    22.176825    1.5608422    434.51436   -4856.0411 
   35300   -100950.06   -90576.183    251.87967    20727    225648.92     19.57987   -94.445397    99.253097     53.93191    432.84162    23.515235    22.169449     1.616789    434.45841    -4818.336 
   35400   -101008.09   -90540.383    254.15772    20727    225895.14   -18.828582   -7.9909557   -22.596852   -25.897938    433.14019    23.519951    22.173895    1.4675026     434.6077   -4848.0925 
   35500   -100859.39   -90550.862    250.29303    20727    225795.05   -42.989986    84.963387    105.90768   -319.84102    432.99534    23.518673     22.17269     1.539929    434.53527   -4838.4713 
   35600   -100894.23   -90536.325    251.49189    20727    225828.23     32.29377   -144.00895   -75.183769    316.07403     433.0714    23.518336    22.172372    1.5019022     434.5733   -4857.0406 
   35700   -100866.04   -90504.467    251.58088    20727     225810.2    16.916567    7.7958196    13.948662    29.005221    432.90998     23.52178     22.17562    1.5826091    434.49259   -4887.3669 
   35800   -100880.32   -90495.093    252.15523    20727    225911.26   -20.387915    152.90127   -150.04777   -64.017247    433.13804    23.520849    22.174741    1.4685779    434.60662   -4893.6938 
   35900   -100815.77   -90494.504    250.60215    20727    225738.94   -55.566971   -131.76495    31.403749   -66.339717    432.82387    23.520408    22.174325    1.6256626    434.44954   -4899.5585 
   36000   -100803.75   -90463.688     251.0586    20727     225961.1    11.586787     11.65404     36.35703   -13.250709    433.11905    23.523959    22.177674    1.4780742    434.59713   -4929.3563 
[...]
  491300   -93469.616   -80556.425    313.53463    20727    221384.74   -125.23213   -38.150233   -275.42702   -62.119143    421.56179    23.601545    22.250819    7.2567045     428.8185   -22526.717 
  491400   -93314.526   -80604.745     308.5958    20727    221375.87    180.08085    57.809781    291.93428     190.4985    421.90894    23.591361    22.241218    7.0831316    428.99207   -22493.041 
  491500   -93355.531   -80576.292    310.28226    20727    221459.98    106.46689    256.95308    296.30451   -233.85691    421.75457     23.60016    22.249513    7.1603155    428.91488   -22517.044 
  491600   -93338.499   -80586.776    309.61417    20727    221411.15     4.217393    -114.4627    178.22304   -51.108158    421.89188    23.593717    22.243439     7.091658    428.98354    -22504.27 
  491700   -93290.889   -80570.324    308.85763    20727    220984.15   -79.924434   -111.67697    -131.9823    3.8859617    422.05916    23.566284    22.217577    7.0080203    429.06718   -22536.992 
  491800   -93233.697   -80532.911    308.37738    20727    221189.55    197.03712    204.23419    90.609529    296.26765    421.89703    23.581764     22.23217    7.0890871    428.98611   -22577.897 
  491900   -93383.613   -80584.034    310.77612    20727    221342.45   -22.819506   -76.079142     142.7802   -135.15957    421.96175    23.588104    22.238147    7.0567272    429.01847   -22515.491 
  492000   -93190.449   -80570.318    306.41908    20727    220666.57   -62.549294   -135.32997    10.595538   -62.913453    421.36386    23.568766    22.219916    7.3556682    428.71953   -22553.198 
  492100   -93389.738   -80560.979    311.48459    20727     221160.8    19.175062     98.16999   -78.156333    37.511528    421.70867    23.585496    22.235689    7.1832636    428.89194    -22552.52 
  492200   -93358.099   -80518.823    311.73996    20727    221375.42   -28.327324    -213.8785   -72.114626    201.01116    421.91611    23.591136    22.241006    7.0795452    428.99565   -22583.322 
  492300   -93280.684    -80552.78    309.03583    20727    221164.27   -46.781889    46.759416    52.223497   -239.32858    421.87969    23.580901    22.231356     7.097755    428.97745   -22559.735 
  492400    -93392.04   -80541.358    312.01691    20727    221238.03   -96.635323   -36.724395   -31.051028   -222.13055    421.69184    23.590085    22.240015    7.1916806    428.88352   -22567.197 
  492500   -93356.767   -80605.777    309.59637    20727    221133.96   -139.16348    -123.7847   -161.03526   -132.67048    421.43961    23.591592    22.241436     7.317795     428.7574    -22507.52 
  492600    -93297.72   -80602.629    308.23912    20727    220783.19    214.80584    309.62429    244.30556    90.487664    421.36967    23.574831    22.225634     7.352767    428.72243   -22540.965 
  492700     -93317.6   -80590.605    309.01374    20727    221093.04   -83.195452    1.9430651    17.862726   -269.39215    421.77418    23.580052    22.230556    7.1505093    428.92469   -22528.345 
  492800   -93379.293   -80553.317    311.41703    20727    220925.51   -121.20804   -147.52713   -283.87504    67.778059    421.94634    23.566307    22.217598    7.0644297    429.01077   -22573.902 
  492900   -93266.295   -80520.001    309.48236    20727    221200.29    118.03037   -18.693438    130.95621    241.82833    422.07128    23.577468     22.22812    7.0019591    429.07324   -22607.234 
  493000   -93328.962    -80513.75     311.1557    20727    221212.53   -26.712905   -155.02474    71.498563    3.3874572    421.93267    23.581993    22.232386    7.0712653    429.00393   -22610.474 
  493100   -93234.516   -80480.925    309.65951    20727    221168.18   -16.935786   -65.134871   -82.691342    97.018857     421.6744    23.586849    22.236964    7.2003991     428.8748    -22645.24 
  493200    -93233.22   -80466.012    309.99015    20727    221190.48    127.74585    286.30778   -30.709007    127.63877    421.60499    23.589979    22.239915    7.2351069    428.84009    -22668.28 
  493300   -93209.998   -80488.556    308.87891    20727    221082.53    21.862181    79.909648   -116.32987    102.00676    421.34966    23.591367    22.241224    7.3627709    428.71243   -22647.386 
  493400   -93282.701   -80489.463    310.62214    20727    220903.42     1.964319    9.0971107   -8.7594699     5.555316    421.10389    23.588689    22.238699    7.4856548    428.58955   -22652.132 
  493500   -93180.022   -80509.475    307.64318    20727    220971.88    79.798936    202.54555    268.31139   -231.46013    421.55727    23.579654    22.230181    7.2589645    428.81624   -22634.272 
  493600   -93168.085   -80517.186    307.16613    20727    220875.18     49.45514    16.940262    36.754955    94.670204    421.71996    23.569946    22.221029    7.1776209    428.89758   -22630.573 
  493700    -93271.85   -80522.439    309.55802    20727    220982.81   -19.930507    50.796732    -126.1588    15.570553    421.74304    23.575043    22.225834    7.1660788    428.90912   -22621.241 
  493800   -93224.957   -80521.357    308.44574    20727    221194.83    36.860729    36.204772    83.470122   -9.0927061    422.09084     23.57663     22.22733      6.99218    429.08302   -22614.379 
  493900   -93199.965   -80538.381    307.42557    20727    220797.08    92.374163    176.82971    171.90733   -71.614554    421.97044    23.558784    22.210505    7.0523823    429.02282   -22617.742 
  494000   -93313.484   -80556.446    309.74321    20727    220931.16   -179.27416   -108.95635   -294.99409   -133.87205     421.9607    23.566208    22.217504    7.0572512    429.01795   -22584.756 
  494100   -93309.584   -80532.259    310.23579    20727    220865.55   -104.93673   -134.56872   -108.28757   -71.953891    421.79466    23.567345    22.218577    7.1402722    428.93493   -22619.402 
  494200   -93391.793   -80555.458    311.66855    20727    220665.19    30.766406   -37.692462     235.2863   -105.29462    421.65815    23.560466    22.212092    7.2085267    428.86667   -22610.141 
  494300   -93388.267   -80602.044    310.45184    20727    220645.06    -29.79486    63.069186   -116.20269   -36.251074    421.75072    23.556806     22.20864    7.1622379    428.91296   -22563.765 
  494400   -93320.907   -80547.331    310.14474    20727    221004.37    10.258948    100.87891   -322.59885    252.49678    421.94921    23.570433    22.221487    7.0629942    429.01221   -22607.155 
  494500   -93338.177   -80525.857    311.08546    20727    220986.54   -101.80636   -331.40353    182.81957   -156.83511    422.04213    23.566887    22.218145    7.0165373    429.05866   -22624.547 
  494600   -93506.195   -80530.979    315.04062    20727    220980.18   -157.25586   -304.70203    -3.229689   -163.83586    421.92081    23.569936    22.221019    7.0771939    428.99801   -22622.457 
  494700   -93303.924   -80564.942    309.30482    20727    220650.88    4.1519075    166.16897   -128.52311   -25.190139    421.48862     23.56444    22.215837    7.2932897    428.78191   -22609.073 
  494800   -93344.554   -80541.308    310.86515    20727    221257.31    32.242666   -92.124343    183.15683     5.695515    421.81411    23.587694    22.237761    7.1305443    428.94466   -22610.417 
  494900   -93173.814   -80533.843    306.90079    20727    220522.68    70.047699   -13.467008    191.94491    31.665192    421.42756      23.5593    22.210992    7.3238225    428.75138   -22648.668 
  495000   -93397.634   -80529.575     312.4388    20727    220889.77    90.126294    177.20821    61.051839     32.11883    421.80101     23.56846    22.219628    7.1370958     428.9381   -22645.333 
  495100   -93222.365    -80493.76    309.05283    20727     220746.5   -38.358601   -49.906353   -69.749379    4.5799297    421.72211    23.563019    22.214498     7.176543    428.89866   -22679.458 
  495200   -93280.626   -80541.257    309.31421    20727    220786.74    72.619761    63.332294    126.01938    28.507604    422.18373     23.55228    22.204374    6.9457359    429.12946   -22639.552 
  495300   -93361.005   -80597.324     309.9045    20727    220602.86    28.656545   -43.933743   -250.04198    379.94535    421.82568     23.55246    22.204543    7.1247586    428.95044   -22588.807 
  495400   -93289.094   -80569.723    308.82863    20727    220660.72   -46.520674   -11.009044   -204.77072    76.217742    421.80271     23.55619     22.20806    7.1362439    428.93896   -22612.518 
  495500   -93330.816   -80547.236    310.38764    20727    221002.18   -52.451512    73.889635   -14.442564   -216.80161    422.21003    23.563034    22.214513    6.9325872    429.14261   -22624.722 
  495600   -93261.054    -80581.96     307.8507    20727    220780.66   -32.387664    101.55196   -173.72114   -24.993808     422.1553    23.552749    22.204816    6.9599516    429.11525   -22599.163 
  495700   -93384.809   -80556.842    311.46538    20727    220974.54    25.599628   -13.921411    59.009931    31.710365    422.06642    23.565569    22.216902    7.0043916    429.07081   -22622.095 
  495800   -93237.522   -80553.261    307.97617    20727    220968.28   -35.550954    75.962702   -15.667836   -166.94773    422.00198    23.567035    22.218284    7.0366101    429.03859   -22623.405 
  495900   -93232.975   -80511.743    308.87382    20727    220594.65   -33.413808   -275.31163   -12.853407    187.92362    421.69204    23.555754    22.207648    7.1915804    428.88362   -22682.902 
  496000   -93189.199   -80568.994    306.42087    20727    220819.04    161.13656    525.98379    17.680088   -60.254209    422.05084    23.557711    22.209494      7.01218    429.06302   -22627.568 
  496100    -93261.02   -80513.171    309.52009    20727    220927.92   -24.379076   -173.36074   -89.883861    190.10737     422.3445    23.555325    22.207244    6.8653493    429.20985   -22674.847 
  496200   -93309.184   -80501.179     310.9807    20727    220811.43    22.599428    52.908893    156.38624   -141.49685    422.00889    23.558476    22.210215    7.0331562    429.04204   -22694.353 
  496300   -93173.129   -80483.265    308.11221    20727    220907.96     37.20127   -152.49058     164.0933    100.00109    422.16486    23.559271    22.210965    6.9551678    429.12003   -22708.608 
  496400   -93335.953   -80497.466    311.72081    20727     221068.1    119.96698    66.736154    53.568134    239.59665    421.81705    23.577524    22.228173    7.1290769    428.94612   -22696.507 
  496500   -93275.613   -80519.838    309.71253    20727    220971.72    59.523757    110.72412   -355.59248    423.43963    421.76855    23.573739    22.224604    7.1533251    428.92187   -22675.501 
  496600   -93362.795   -80514.259    311.96479    20727    220730.82    -7.944801   -172.05786    25.536679    122.68678    421.60931    23.565334    22.216681    7.2329447    428.84226   -22690.725 
  496700   -93393.914   -80547.485    311.91362    20727    220834.96    99.708613    59.131082    122.58568    117.40907    421.63048    23.570301    22.221363    7.2223585    428.85284   -22660.634 
  496800   -93288.102    -80573.55    308.71165    20727    220920.23    87.846358   -54.889986    263.52711    54.901951    421.76833    23.570999    22.222021    7.1534366    428.92176   -22632.112 
  496900   -93308.237   -80533.165    310.18108    20727    221183.12    37.515831    110.61552   -58.183341    60.115312    421.73725    23.585887    22.236057    7.1689732    428.90623   -22661.767 
  497000   -93109.727   -80533.765    305.34664    20727    221375.22    22.921971   -87.453711    54.390214    101.82941     421.9251    23.590874    22.240759    7.0750509    429.00015   -22653.883 
  497100   -93311.014   -80525.382    310.43747    20727    221128.98    35.371787     177.4898    200.88677    -272.2612    421.71224      23.5837    22.233996    7.1814794    428.89372   -22678.699 
  497200   -93267.553   -80581.608    308.01705    20727    221249.56     7.218365   -244.37791   -60.128175    326.16118    421.92549    23.584167    22.234436    7.0748528    429.00035   -22618.453 
  497300   -93237.836   -80525.971    308.64639    20727    221193.56   -46.939011   -161.67774    86.709772   -65.849067    421.85001    23.583292     22.23361    7.1125971     428.9626    -22675.52 
  497400   -93273.388   -80539.494    309.18127    20727    220715.29    -5.733711    65.502617   -78.391383   -4.3123674    421.49284    23.567761    22.218969    7.2911816    428.78402   -22684.686 
  497500   -93250.049   -80552.378    308.30177    20727     220781.8    27.918647    -3.965674    152.95979   -65.238173    421.65582    23.566755    22.218021    7.2096887    428.86551   -22670.061 
  497600   -93322.483   -80583.395    309.30737    20727    220683.84    34.208109    67.782147    294.80623   -259.96405    421.51423    23.565484    22.216822     7.280487    428.79471   -22646.619 
  497700    -93253.93   -80575.898    307.82491    20727    220588.71   -8.2901984   -15.046202    136.70865   -146.53304    421.42284    23.562959    22.214441    7.3261807    428.74902   -22655.854 
  497800   -93202.008   -80550.481    307.18138    20727     220495.1    73.080756     271.1949   -252.27727    200.32464     421.3421    23.560215    22.211855     7.366551    428.70865   -22691.393 
  497900   -93384.993   -80541.363    311.84568    20727    220703.28   -73.646057   -36.071717   -368.34649    183.48003     421.4959    23.567034    22.218283    7.2896517    428.78555   -22687.934 
  498000   -93242.552   -80515.088    309.02515    20727    220682.95    130.32549    91.293206    278.39341    21.289858    421.89145    23.554899    22.206842    7.0918736    428.98333   -22727.114 
  498100    -93450.73    -80512.69    314.13796    20727    220599.85   -120.22505   -170.33885   -16.712683   -173.62361    421.67912    23.556392     22.20825     7.198041    428.87716   -22722.122 
  498200    -93170.66   -80565.068    306.06609    20727    220728.45   -24.208926   -43.891489   -284.95572    256.22043    421.94153    23.555929    22.207814    7.0668356    429.00836   -22670.607 
  498300    -93427.67   -80568.788    312.21598    20727    220835.28    49.108038    88.154048    -32.03599    91.206055    421.80388    23.565473    22.216811    7.1356603    428.93954   -22669.682 
  498400   -93354.746   -80514.323    311.76781    20727    220765.31   -109.38351   -180.12724   -75.412982   -72.610325    421.88753    23.559403    22.211089    7.0938341    428.98137   -22721.281 
  498500   -93402.698   -80531.801    312.50773    20727    220662.21    58.619896    181.75337    95.091779   -100.98546    421.69907    23.559164    22.210864    7.1880629    428.88714    -22716.81 
  498600   -93276.329   -80540.901    309.21852    20727    220992.33     20.79746   -102.75686    249.16409   -84.014849    421.95164    23.569723    22.220818    7.0617776    429.01342   -22693.144 
  498700   -93374.204   -80576.033    310.74191    20727    220836.97   -80.483547    182.65114   -368.51879   -55.582991    421.73419     23.56751    22.218732    7.1705056    428.90469   -22663.732 
  498800   -93381.104     -80561.4    311.26474    20727     220902.3    36.726243   -139.18006    265.14754   -15.788757    421.43323    23.579411    22.229952    7.3209863    428.75421   -22683.616 
  498900    -93387.11   -80596.611    310.55564    20727    220669.15   -11.329223    50.988996   0.75734414   -85.734009    421.33789     23.56963    22.220731    7.3686535    428.70655   -22655.708 
  499000   -93399.978   -80570.814    311.49443    20727    220897.54    34.441965   -24.824862    117.19934    10.951418    421.07526    23.589177    22.239159    7.4999705    428.57523   -22676.385 
  499100   -93248.473   -80574.372    307.72949    20727    220690.09   -98.164875  -0.34251862   -230.33341   -63.818701    421.02266    23.579571    22.230102    7.5262694    428.54893   -22676.677 
  499200   -93293.504    -80568.31    308.97004    20727    220972.36   -133.35643    -324.9506    -357.2798    282.16113    421.56795    23.579381    22.229923    7.2536233    428.82158   -22673.293 
  499300   -93201.842   -80537.473     307.4932    20727    220544.65    167.01523    412.54883    81.904485    6.5923619     421.0343    23.571474    22.222469    7.5204497    428.55475   -22734.826 
  499400   -93323.651   -80579.793    309.42321    20727    220437.42   -4.4770041    265.36893   -201.23038   -77.569568    420.92953    23.568676    22.219831    7.5728348    428.50237   -22694.093 
  499500   -93374.682   -80523.784    312.02215    20727    220679.87    21.703623    107.36433   -94.940337    52.686878     421.3337     23.57032    22.221381    7.3707486    428.70445     -22743.3 
  499600   -93275.202   -80518.477    309.73561    20727    220941.43    90.779274   -57.021075    -104.8106     434.1695    421.13433    23.589866    22.239808    7.4704333    428.60477   -22743.445 
  499700   -93282.681   -80521.366    309.84705    20727    220915.86    79.767612    15.941264    21.688654    201.67292    421.25415    23.585146    22.235358    7.4105272    428.66467   -22743.523 
  499800   -93155.792   -80569.855    305.58885    20727    220455.24    87.898213    228.67169    105.80014   -70.777196    420.98823    23.567985     22.21918    7.5434836    428.53172   -22716.223 
  499900   -93430.701   -80577.203    312.08528    20727    220421.27   -30.466424   -104.62272   -41.577842     54.80129    420.88599    23.569031    22.220166    7.5946074    428.48059   -22707.415 
  500000   -93304.766    -80503.88    310.80784    20727    220637.19   -57.356939    55.323211   -150.89188   -76.502144     421.0262    23.576646    22.227345    7.5245024     428.5507   -22769.465 
Loop time of 71133 on 32 procs for 500000 steps with 20727 atoms

Performance: 1.215 ns/day, 19.759 hours/ns, 7.029 timesteps/s
97.4% CPU use with 32 MPI tasks x no OpenMP threads

MPI task timing breakdown:
Section |  min time  |  avg time  |  max time  |%varavg| %total
---------------------------------------------------------------
Pair    | 13600      | 14595      | 16586      | 818.3 | 20.52
Bond    | 0.80313    | 0.87688    | 1.1162     |   7.6 |  0.00
Kspace  | 13032      | 15026      | 16024      | 807.7 | 21.12
Neigh   | 10731      | 12906      | 15036      |1587.4 | 18.14
Comm    | 464.73     | 1878.3     | 3944.8     |2401.1 |  2.64
Output  | 8.3325     | 32.354     | 44.964     | 220.5 |  0.05
Modify  | 25088      | 26612      | 29601      | 955.0 | 37.41
Other   |            | 81.85      |            |       |  0.12

Nlocal:    647.719 ave 705 max 580 min
Histogram: 2 2 0 1 13 0 3 6 2 3
Nghost:    7383.22 ave 7811 max 6788 min
Histogram: 4 1 4 2 3 1 2 2 5 8
Neighs:    238753 ave 276434 max 202378 min
Histogram: 2 2 7 7 0 1 2 6 2 3
FullNghs:  477509 ave 556945 max 406284 min
Histogram: 2 2 9 5 0 1 4 5 1 3

Total # of neighbors = 15280287
Ave neighs/atom = 737.217
Ave special neighs/atom = 2
Neighbor list builds = 500000
Dangerous builds not checked
write_data production.R1
PPPM initialization ...
  extracting TIP4P info from pair style
WARNING: Using 12-bit tables for long-range coulomb (../kspace.cpp:316)
  G vector (1/distance) = 0.345974
  grid = 400 48 48
  stencil order = 5
  estimated absolute RMS force accuracy = 0.000400355
  estimated relative force accuracy = 1.20566e-06
  using double precision FFTs
  3d grid and FFT values/proc = 67260 38400
write_restart restartproduction.R1
PPPM initialization ...
  extracting TIP4P info from pair style
WARNING: Using 12-bit tables for long-range coulomb (../kspace.cpp:316)
  G vector (1/distance) = 0.345974
  grid = 400 48 48
  stencil order = 5
  estimated absolute RMS force accuracy = 0.000400355
  estimated relative force accuracy = 1.20566e-06
  using double precision FFTs
  3d grid and FFT values/proc = 67260 38400
Total wall time: 19:45:33
