LAMMPS (30 Jul 2016)
# Sets up LAMMPS simulation for transient melting of ice: TIP4P/Ice
# Ensure cold thermostats do not move
# Thinbox: 16x1x1
# Defects
# Order param l=2

#### setting MD parameters ####
units real
boundary p p p
atom_style full

# read ice box in restart file
### read the equilibrated NPT restart file

read_restart restart.state
  orthogonal box = (0.435089 0.023478 0.0221343) to (435.64 23.5077 22.1624)
  32 by 1 by 1 MPI processor grid
  20736 atoms
  13824 bonds
  6912 angles
  2 = max # of 1-2 neighbors
  1 = max # of 1-3 neighbors
  1 = max # of 1-4 neighbors
  2 = max # of special neighbors


#### force field definition ####
pair_style      lj/cut/tip4p/long 2 1 1 1 0.1577 10.0
pair_modify	tail yes

kspace_style	pppm/tip4p 1.0e-6

bond_style	harmonic
angle_style	harmonic
dihedral_style	none
improper_style	none

bond_coeff	1 450.0 0.9572
angle_coeff	1 55.0 104.52


# reset pair coeff
pair_coeff	* * 0.0 0.0

#OO
pair_coeff	2 2 0.21085 3.1668
#OH
pair_coeff	* 1 0.0000 0.0000

neighbor        2.0 bin
neigh_modify    every 1 delay 1 check no

timestep	2.0
fix		constraints all shake 0.000001 20 0 b 1 a 1
  0 = # of size 2 clusters
  0 = # of size 3 clusters
  0 = # of size 4 clusters
  6912 = # of frozen angles

group water type 1 2
20736 atoms in group water

#*********** SIMULATION PARAMETER TO ADJUST ****************
#Box dimensions
variable lx equal lx
variable ly equal ly
variable lz equal lz

### Temperature of the hot and cold regions ####
variable thi equal 375
variable tlo equal 215
variable runpressure equal 0.986923


# Configuration equilibrated in density and temperature

# Define dx here

variable lx equal lx
variable ly equal ly
variable lz equal lz

variable xlo equal xlo
variable xhi equal xhi

variable boxcentre equal ${xlo}+(${xhi}-${xlo})/2
variable boxcentre equal 0.435089141788316+(${xhi}-${xlo})/2
variable boxcentre equal 0.435089141788316+(435.640110858214-${xlo})/2
variable boxcentre equal 0.435089141788316+(435.640110858214-0.435089141788316)/2

variable dx equal 2.0

#### ADD IN DEFECTS AT THE CENTRE OF THE HOT THERMOSTAT #####
variable y1 equal ${ly}/2.0
variable y1 equal 23.4842440180352/2.0
variable z1 equal ${lz}/2.0
variable z1 equal 22.1402313276887/2.0

region kill1 sphere ${boxcentre} ${y1} ${z1} 3
region kill1 sphere 218.037600000001 ${y1} ${z1} 3
region kill1 sphere 218.037600000001 11.7421220090176 ${z1} 3
region kill1 sphere 218.037600000001 11.7421220090176 11.0701156638443 3
delete_atoms region kill1 compress no bond yes mol yes
Deleted 12 atoms, new total = 20724
Deleted 8 bonds, new total = 13816
Deleted 4 angles, new total = 6908
############


variable thip equal ${thi}*2.0/3.0
variable thip equal 375*2.0/3.0
variable tlop equal ${tlo}*2.0/3.0
variable tlop equal 215*2.0/3.0
variable hbl equal ${boxcentre}-${dx}
variable hbl equal 218.037600000001-${dx}
variable hbl equal 218.037600000001-2
variable hbh equal ${boxcentre}+${dx}
variable hbh equal 218.037600000001+${dx}
variable hbh equal 218.037600000001+2

#***************************************************
## EQUILIBRATION PERIOD - to reach the steady state ###
#run 0

#reset the timestep to start your production run
reset_timestep 0

# define a group to perform averages
#group s1 type 1
###*** SYSTEM THERMOSTATTING: HOT and COLD regions ***###

fix NVE all nve
fix PRESS all press/berendsen aniso ${runpressure} ${runpressure} 500000 couple yz
fix PRESS all press/berendsen aniso 0.986923 ${runpressure} 500000 couple yz
fix PRESS all press/berendsen aniso 0.986923 0.986923 500000 couple yz


### Apply THERMOSTATS ###

#set up the "hot region" in the middle of the box
region hot block ${hbl} ${hbh} 0 ${ly} 0 ${lz} units box
region hot block 216.037600000001 ${hbh} 0 ${ly} 0 ${lz} units box
region hot block 216.037600000001 220.037600000001 0 ${ly} 0 ${lz} units box
region hot block 216.037600000001 220.037600000001 0 23.4842440180352 0 ${lz} units box
region hot block 216.037600000001 220.037600000001 0 23.4842440180352 0 22.1402313276887 units box


#set up the "cold region" at the left end of the box
#region cold block ${cbl} ${cbh} 0 ${ly} 0 ${lz} units box

#set up the "cold region" at the right end of the box
#region cold2 block ${h2bl} ${xhi} 0 ${ly} 0 ${lz} units box


#Cold regions  unification
#region cold union 2 cold1 cold2 units box

#Create group of cold molecules
####group cool_ice region cold
####group cool_ice include molecule

####compute cold_temp cool_ice temp
####fix cold_rescale water temp/rescale 1 ${tlo} ${tlo} 0.0001 1.0
####fix_modify cold_rescale temp cold_temp

#this calculates the temperature using only the atoms in the "hot region"
#compute hot_temp all temp/region hot

# calculate the temperature using only WATER in the "hot region"
compute hot_temp water temp/region hot

#this calculates the temperature using only WATER in the "cold region"
#compute cold_temp water temp/region cold


#set up a basic velocity rescale for the hot region WATER with thip
fix hot_rescale water temp/rescale 1 ${thip} ${thip} 1.0 1.0
fix hot_rescale water temp/rescale 1 250 ${thip} 1.0 1.0
fix hot_rescale water temp/rescale 1 250 250 1.0 1.0
#change the thermostat to only act on the "hot region"
#this is done by passing it the "hot temp" compute that we defined above
fix_modify hot_rescale temp hot_temp

#set up a basic velocity rescale for the cold region
#fix cold_rescale water temp/rescale 1 ${tlop} ${tlop} 1.0 1.0
#change the thermostat to only act on the "cold region"
#this is done by passing it the "cold temp" compute that we defined above
#fix_modify cold_rescale temp cold_temp

### Ensure MOMENTUM CONSERVATION ###

#ensure that linear momentum is conserved despite the "thermostatting" by velocity rescaling
fix cons_mom all momentum 1 linear 1 1 1


thermo 100
thermo_style custom step pe etotal temp atoms vol press pxx pyy pzz lx ly lz xlo xhi  f_hot_rescale

group ox type 2
6908 atoms in group ox
group hy type 1
13816 atoms in group hy
compute KE all ke/atom
variable TEMP atom c_KE*4186.8/(1.3806488*6.02214129)

compute cc1 all chunk/atom bin/1d x center 2 units box
#fix TPROFILE all ave/chunk 1 500 500 cc1 v_TEMP density/number file temp.dat
fix TPROFILEox ox ave/chunk 1 500 500 cc1 v_TEMP density/number file temp-ox.dat
fix TPROFILEhy hy ave/chunk 1 500 500 cc1 v_TEMP density/number file temp-hy.dat

compute orderparam ox orientorder/atom degrees 1 2 nnn 4 cutoff 3.5
compute cc2 ox chunk/atom bin/1d x center 2 units box
#fix ORDERPARAM all ave/chunk 1 500 500 cc2 c_orderparam[1] file order-param.dat
fix ORDERPARAM all ave/chunk 1 500 500 cc2 c_orderparam[1] file order-param.dat

restart 50000 config.restart

run 500000
PPPM initialization ...
  extracting TIP4P info from pair style
WARNING: Using 12-bit tables for long-range coulomb (../kspace.cpp:316)
  G vector (1/distance) = 0.345601
  grid = 405 48 48
  stencil order = 5
  estimated absolute RMS force accuracy = 0.000405952
  estimated relative force accuracy = 1.22251e-06
  using double precision FFTs
  3d grid and FFT values/proc = 67260 38880
Neighbor list info ...
  2 neighbor list requests
  update every 1 steps, delay 1 steps, check no
  max neighbors/atom: 2000, page size: 100000
  master list distance cutoff = 12.3154
  ghost atom cutoff = 12.3154
  binsize = 6.1577 -> bins = 71 4 4
Memory usage per processor = 12.7858 Mbytes
Step PotEng TotEng Temp Atoms Volume Press Pxx Pyy Pzz Lx Ly Lz Xlo Xhi hot_resc 
       0   -103826.89   -95023.454    213.77999    20724    226283.37    148.58128    181.15527    253.18025    11.408308    435.20502    23.484244    22.140231   0.43508914    435.64011            0 
     100   -103647.49   -94750.158    216.06008    20724    226582.93   -4.9274977     134.3194   -213.04189    63.939998    435.51244    23.491488     22.14706   0.28137849    435.79382   -266.34659 
     200   -103654.43   -94742.638    216.41133    20724    226349.96    30.187488    86.597985    50.327651    -46.36317    435.23135    23.486989    22.142819   0.42192475    435.65328   -285.68931 
     300   -103609.21   -94655.326    217.43339    20724    226564.17    63.473196    24.024563    17.202596    149.19243    435.33808    23.495219    22.150578   0.36856038    435.70664   -368.30094 
     400   -103717.29   -94627.144    220.74235    20724    226431.14   -55.088383   -8.1940497    29.681554   -186.75265    435.20826    23.491823    22.147377   0.43346894    435.64173   -398.07351 
     500   -103580.97   -94588.465    218.37137    20724    226522.94   -71.134133   -147.10672    68.431864   -134.72754    435.31301    23.493758    22.149201   0.38109311    435.69411   -431.66628 
     600   -103515.58   -94560.291    217.46747    20724    226477.87   -9.5021451    21.852097    -85.03731    34.678777    435.27348    23.492487    22.148003   0.40086075    435.67434   -465.10156 
     700   -103621.48   -94483.555    221.90258    20724    226307.91   -67.222979    115.00631   -469.29353    152.61828    435.17135    23.486426    22.142288   0.45192293    435.62328   -544.25713 
     800   -103562.81   -94468.584     220.8415    20724    226341.85   -4.8782563    27.932736   -19.798886   -22.768619    435.16459    23.488369    22.144121   0.45530371     435.6199   -561.15018 
     900   -103467.01   -94451.264    218.93576    20724    226434.83    33.970221   -25.959157    181.77053   -53.900712    434.87865    23.500916    22.155949   0.59827505    435.47692   -579.28379 
    1000    -103510.1   -94421.002    220.71684    20724    226464.83    50.019692    20.716483    82.801508    46.541085    435.20304    23.493712    22.149157   0.43608046    435.63912   -610.56319 
    1100   -103503.42   -94408.225    220.86498    20724     226416.6    41.173308    228.73779    -168.1879    62.970036    435.18597    23.491671    22.147233   0.44461706    435.63058   -624.43224 
    1200   -103460.03   -94363.304    220.90224    20724    226636.19   -65.704487   -194.53005    41.151515   -43.734922    435.23523     23.50173    22.156716   0.41998633    435.65521   -659.95542 
    1300   -103393.85   -94300.383    220.82301    20724    226399.21    76.447878    180.85964    79.665814    -31.18182    435.13293      23.4922    22.147732   0.47113465    435.60407   -737.98217 
    1400      -103348   -94295.219    219.83489    20724    226401.48    25.295244      132.848    129.42201   -186.38428     435.2318     23.48965    22.145328    0.4217012     435.6535   -738.71515 
    1500   -103460.76    -94288.01    222.74823    20724    226451.08    37.120599    64.442188    89.577787   -42.658177    435.16951    23.493904    22.149338    0.4528469    435.62235   -747.83569 
    1600   -103378.25   -94214.327    222.53386    20724    226626.52    35.257492    28.193925   -113.97528    191.55383    435.41826    23.496288    22.151586   0.32846952    435.74673   -817.67121 
    1700   -103289.94   -94163.609    221.62106    20724    226450.76    30.560729    38.616319    79.458418    -26.39255    435.39244    23.487872    22.143651   0.34137929    435.73382   -872.73334 
    1800   -103324.98   -94131.211     223.2586    20724    226410.29   -15.285429    5.1707475    90.694503   -141.72154    435.17456    23.491651    22.147215   0.45031779    435.62488   -905.03122 
    1900   -103294.06   -94104.231    223.16292    20724    226579.26   -24.192235   -1.2447521    44.117769   -115.44972    435.44503    23.493116    22.148595   0.31508259    435.76012   -928.81807 
    2000   -103294.55   -94085.843    223.62151    20724    226380.16   -45.904081   -93.950668   -205.70703    161.94545    435.16798    23.490266    22.145909   0.45360902    435.62159   -950.12843 
    2100   -103270.43   -94056.876    223.73903    20724    226574.88   -14.176532    83.268603   -119.49535   -6.3028481    435.37478    23.494784    22.150168   0.35020785    435.72499   -976.48592 
    2200   -103204.92   -93995.226    223.64538    20724    226435.01    80.856422     128.5372    29.417172    84.614896    435.13674    23.493955    22.149386   0.46922947    435.60597    -1047.316 
    2300   -103249.11   -93973.818    225.23848    20724    226541.83    23.087674    101.04551     377.6357   -409.41819     435.2826    23.495558    22.150898   0.39629778     435.6789   -1063.5876 
    2400    -103223.1   -93988.381    224.25306    20724    226443.63   -53.889138   -104.66715    31.070614   -88.070877      435.329    23.489213    22.144916   0.37310043     435.7021    -1047.423 
    2500   -103246.35   -93948.686     225.7816    20724    226611.31   -8.2853467   -29.703883   -289.52764    294.37548    435.40439    23.495874    22.151196   0.33540353     435.7398   -1086.7191 
    2600   -103187.04   -93942.598    224.48929    20724    226494.22     40.94557    196.49856   -87.763598    14.101745    435.01394    23.500343    22.155409   0.53063226    435.54457   -1100.0852 
    2700    -103241.6   -93895.645    226.95432    20724    226690.64   -15.533261   -2.5314762   -157.53266    113.46435     435.1646     23.50646    22.161176   0.45529906     435.6199   -1140.8095 
    2800   -103025.02   -93872.693    222.25231    20724    226592.68    116.14858    92.654237    76.967843    178.82367    435.57202    23.490387    22.146023   0.25158976    435.82361   -1170.6294 
    2900   -103265.55   -93880.178    227.91158    20724    226604.77   -10.342545   -47.785021    165.04295   -148.28556    435.35648    23.496827    22.152095   0.35935926    435.71584   -1159.8085 
    3000   -103040.03   -93824.483    223.78763    20724    226461.83    -58.11882   -19.392301    79.999187   -234.96335    435.25662     23.49211    22.147647   0.40928971    435.66591   -1215.6892 
    3100   -103101.47   -93798.472    225.91112    20724    226790.45    93.032622     56.71201   -35.285313    257.67117    435.35466    23.506501    22.161215    0.3602709    435.71493   -1242.8427 
    3200   -103106.78   -93803.196     225.9254    20724     226590.3     94.66314    59.898748   -83.753099    307.84377    435.27263     23.49834    22.153521   0.40128273    435.67392   -1243.0241 
    3300   -103163.89   -93830.809    226.64169    20724    226617.14   -9.2724253   -66.464308    -17.04283    55.689862    435.21597    23.501262    22.156275   0.42961371    435.64559   -1212.6351 
    3400   -103117.06   -93791.317    226.46357    20724    226622.03    15.931058   -43.041819   -166.56428    257.39928    435.46419    23.494816    22.150199    0.3055035     435.7697   -1254.7091 
    3500   -103037.49   -93755.953    225.39015    20724    226667.52    13.193305   -44.521785    136.27922   -52.177518    435.37635    23.499544    22.154656   0.34942253    435.72578    -1286.308 
    3600   -103126.07   -93753.317    227.60521    20724    226755.51     77.11825    45.831278    238.53095   -53.007474    435.45756    23.501913    22.156889   0.30882101    435.76638   -1292.8946 
    3700   -103128.52   -93763.724     227.4119    20724    226596.48   -25.910608   -70.845343    181.29432    -188.1808    435.55524    23.491036    22.146635   0.25998083    435.81522   -1282.4002 
    3800   -103113.68   -93825.413    225.55357    20724     226639.1   -21.824791   -36.022149    -17.15526   -12.296964    435.31151    23.499821    22.154917   0.38184451    435.69336   -1219.5245 
    3900   -103111.77   -93789.674    226.37504    20724    226835.37    64.288912    7.6846687    25.386564     159.7955    435.41422    23.507222    22.161894   0.33049002    435.74471    -1254.828 
    4000   -103143.71   -93766.227    227.71998    20724    226762.73   -16.535742   -103.81813   -70.135797    124.34669    435.46744    23.502021    22.156991    0.3038798    435.77132   -1277.7975 
    4100   -103065.54    -93743.73    226.36797    20724    226833.61    37.403407    -109.2103   -53.606646    275.02717    435.58147    23.502617    22.157553   0.24686443    435.82834   -1300.9689 
    4200   -103054.86    -93742.39    226.14126    20724    226782.87    44.126024    116.18568    98.710305   -82.517918    435.39365    23.505056    22.159853   0.34077504    435.73442   -1305.9351 
    4300   -103105.95   -93738.773    227.46971    20724     226744.2   -3.9049846   -12.308512    47.949129   -47.355571    435.43758    23.501866    22.156845   0.31881233    435.75639   -1310.1083 
    4400   -103052.15   -93738.793    226.16267    20724     226683.8    6.8036804   -71.717387   -33.699375     125.8278    435.32102    23.501882     22.15686   0.37709042    435.69811   -1313.0225 
    4500   -103062.98   -93713.592    227.03763    20724    226820.08    25.589288   -41.242227   -138.97464    256.98473    435.42794    23.506059    22.160798   0.32362798    435.75157   -1334.9373 
    4600   -103055.57   -93693.894    227.33615    20724    226682.89     33.11104   -77.280036   -10.435283    187.04844    435.41946    23.499178    22.154311   0.32787159    435.74733   -1358.5608 
    4700   -103087.79   -93693.025    228.13971    20724    226781.15   -12.032507   -19.290491   -109.39147    92.584442    435.28911    23.507789    22.162429   0.39304608    435.68215   -1356.4882 
    4800   -103093.69   -93722.551    227.56585    20724    226669.45    58.504675    152.97901    38.564304   -16.029285    435.27778    23.502305    22.157259   0.39871051    435.67649   -1335.2562 
    4900   -103029.82   -93677.451    227.11021    20724    226862.59   -32.761157    -189.0107   -150.73026    241.45749    435.37453    23.509703    22.164233    0.3503356    435.72486   -1370.4815 
    5000   -103015.21   -93646.507    227.50679    20724    226698.01     3.966364     169.8898   -157.03678  -0.95392715     435.2911    23.503426    22.158316   0.39205199    435.68315   -1407.6981 
    5100   -103024.55   -93612.793     228.5522    20724    226727.52    111.63436    112.49281    40.195605    182.21467    435.27535    23.505381    22.160159   0.39992514    435.67527   -1448.1274 
    5200   -102960.81   -93608.386    227.11153    20724    226684.66    31.698812   -19.909973    65.501429    49.504981    435.34879    23.501177    22.156195    0.3632052    435.71199   -1450.0305 
    5300   -103015.38   -93595.202    228.75679    20724    226640.58   -3.6388525     41.08553   -84.537977     32.53589     435.2765    23.500843     22.15588    0.3993478    435.67585   -1465.1864 
    5400   -103037.75   -93594.789    229.31007    20724    226601.38    8.1886836   -90.963542    169.09193   -53.562334    435.24352    23.499701    22.154803   0.41584005    435.65936   -1467.2553 
    5500   -103016.48   -93559.361    229.65393    20724    226637.94   -44.380567   -114.21151    47.732925   -66.663113    435.32817    23.499311    22.154436   0.37351378    435.70169   -1500.2236 
    5600   -103116.27   -93555.912    232.16082    20724     226445.2   -90.459903   -207.94565    120.39399   -183.82806    435.15668    23.493945    22.149377   0.45926228    435.61594   -1509.2476 
    5700   -103000.66   -93515.136    230.34367    20724    226679.04   -24.752815    85.499403     9.068138   -168.82598    435.22728    23.504166    22.159013   0.42396193    435.65124   -1545.8142 
    5800   -103009.55   -93516.439    230.52793    20724    226598.24    -18.68417    174.37387   -177.86407    -52.56231    435.25573    23.499208    22.154339   0.40973607    435.66546   -1548.4518 
    5900   -103022.34   -93531.622    230.46973    20724    226734.22    6.5501606   0.85112399    35.981393   -17.182035     435.3276    23.504318    22.159156   0.37380083     435.7014   -1532.9437 
    6000    -102974.9   -93513.723    229.75232    20724     226553.5    1.5752673    182.76146   -105.96324   -72.072421    435.32486    23.495023    22.150393   0.37517096    435.70003   -1555.5855 
    6100   -102959.61   -93507.611    229.52958    20724    226805.22    35.249561   -13.679001   -16.411015     135.8387    435.52464    23.502679    22.157611   0.27527904    435.79992   -1557.9122 
    6200    -102884.4   -93469.984    228.61694    20724    226569.84   -20.879568    13.940674   -128.42047    51.841089    435.41048     23.49356    22.149014   0.33236105    435.74284   -1599.1119 
    6300   -102920.23   -93465.842    229.58758    20724    226745.31    -39.38716    -20.27543    15.927651    -113.8137     435.5744    23.498232    22.153419   0.25039908     435.8248   -1598.1939 
    6400    -102969.5   -93464.012    230.82831    20724    226776.94   -43.339832    62.705147    3.9383098   -196.66295    435.63925    23.498122    22.153316    0.2179746    435.85723   -1600.8584 
    6500   -102899.66   -93462.001    229.18132    20724    226638.23   -32.887036   -90.211114   -168.23335    159.78335     435.4932    23.494873    22.150252   0.29100061     435.7842   -1607.2291 
    6600      -102939   -93449.152    230.44861    20724     226671.1    67.215757    155.56305    7.5240674    38.560151    435.41996    23.498553    22.153722   0.32761891    435.74758   -1625.4947 
    6700   -102935.97   -93428.631    230.87325    20724    226628.03   -18.029045     14.93538   -18.790544   -50.231972    435.28784    23.499886    22.154978    0.3936794    435.68152   -1643.9933 
    6800   -102849.62   -93412.643    229.16473    20724    226603.39   -51.535327    76.108323   -95.058396   -135.65591    435.31773    23.497802    22.153013   0.37873431    435.69647   -1660.2336 
    6900   -102865.75   -93405.833    229.72188    20724    226789.14    91.183306    8.9689629    42.330219    222.25074    435.37853    23.505789    22.160543   0.34833404    435.72687    -1672.185 
    7000   -102894.33   -93384.278    230.93929    20724    226667.31  -0.73547018   -114.07741    126.10595   -14.234956     435.1693    23.505124    22.159916   0.45295007    435.62225   -1690.9092 
    7100   -102925.07   -93384.636    231.67692    20724    226542.47    33.252744    130.81651   -284.90589    253.84761    435.20309    23.497737    22.152953   0.43605252    435.63915   -1697.5548 
    7200      -102823   -93342.848    230.21311    20724    226661.52   -53.580719   -7.2482988   -9.4879168   -144.00594    435.29675    23.501382    22.156388   0.38922596    435.68597   -1733.6551 
    7300   -102894.31     -93352.1    231.72005    20724    226704.27   -35.321843   -199.04022    197.45107   -104.37638     435.5264    23.497401    22.152635   0.27440208     435.8008   -1725.8747 
    7400   -102880.85   -93321.644    232.13289    20724    226820.29   -21.205934   -16.201338   -52.855592    5.4391289    435.36656    23.507727     22.16237   0.35432211    435.72088   -1754.7317 
    7500   -102833.43   -93337.182    230.60398    20724     226707.3    25.907043    155.23463    76.706542   -154.22004    435.21972    23.505835    22.160587   0.42773849    435.64746    -1747.378 
    7600   -102823.83   -93327.817    230.59828    20724    226741.77    34.703287   -64.507997    190.79745   -22.179591     435.4762    23.500698    22.155744    0.2995022     435.7757   -1753.7587 
    7700   -102799.02   -93304.976    230.55056    20724    226736.72   -26.568504   -157.02446    34.781974    42.536969    435.54027    23.498708    22.153868   0.26746469    435.80774    -1776.075 
    7800   -102831.91   -93315.859    231.08502    20724    226721.89    -19.03288   -74.919771   -76.552065    94.373196     435.4016    23.501681     22.15667   0.33680059     435.7384   -1766.8581 
    7900    -102813.8    -93262.42    231.94278    20724    226621.14   -20.069804    11.993204    22.644368   -94.846985     435.3191    23.498685    22.153846   0.37805056    435.69715   -1823.6202 
    8000   -102803.14   -93268.851    231.52767    20724    226926.04    51.037942    146.34468    95.289508   -88.520362    435.55428    23.508138    22.162758   0.26046061    435.81474   -1813.0748 
    8100   -102771.92   -93287.173    230.32485    20724     226631.1   -66.640303   -108.42587   -222.36762    130.87259    435.33734    23.498709    22.153869   0.36892882    435.70627   -1796.9458 
    8200      -102937   -93307.127    233.84891    20724    226798.71   -4.4390031    4.7136363    16.139117   -34.169763    435.42765    23.504959    22.159761   0.32377374    435.75143   -1779.8771 
    8300   -102824.44   -93259.938    232.26136    20724    226638.13    13.892214   -69.444491    36.813285    74.307848    435.46562    23.495613    22.150949   0.30479056    435.77041    -1830.901 
    8400   -102791.69   -93240.557     231.9368    20724    226566.46    51.817345    182.08993   -182.74219    156.10429    435.34418    23.495173    22.150535   0.36550995    435.70969   -1855.4965 
    8500   -102837.59   -93237.178    233.13352    20724    226660.33     -48.7505   -70.609087   -108.90405    33.261639    435.44801    23.497238    22.152482   0.31359468    435.76161   -1852.8099 
    8600   -102839.93   -93224.496    233.49819    20724    226644.44   -57.760932    96.557041   -398.19506    128.35523    435.27702    23.501029    22.156056   0.39908873    435.67611   -1865.3631 
    8700   -102727.11   -93185.417    231.70768    20724    226656.22    101.86924    59.109735    43.680288    202.81769    435.66531    23.491165    22.146756   0.20494537    435.87025   -1912.2013 
    8800   -102797.76   -93154.776    234.16737    20724    226699.67    29.186857   -74.025088    426.26043   -264.67477     435.6343    23.494252    22.149666    0.2204484    435.85475   -1939.6189 
    8900   -102743.01   -93136.946    233.27077    20724    226593.91   -30.328554    30.951165   -54.175255   -67.761572    435.35502    23.496304    22.151601   0.36008991    435.71511   -1961.0495 
    9000   -102751.67   -93144.714    233.29234    20724    226740.36    25.883232   -50.282478    147.86102    -19.92885    435.48272     23.50045    22.155509   0.29623919    435.77896   -1952.3087 
    9100   -102709.41     -93142.9    232.31031    20724    226799.21    40.848554    -48.06581    288.80122   -118.18975    435.61235    23.500002    22.155087    0.2314234    435.84378   -1952.9526 
    9200   -102713.95   -93118.995     233.0011    20724     226847.6     51.05801   -83.274444    368.81708   -132.36861    435.43211    23.507372    22.162036   0.32154584    435.75365   -1977.1354 
    9300    -102764.8   -93154.955    233.36259    20724    226838.87   -24.889595    222.31063   -37.096582   -259.88284    435.72279    23.499077    22.154216   0.17620323      435.899   -1942.1668 
    9400   -102730.15   -93113.622    233.52491    20724     226753.4   -1.5039435    109.55256   -9.5209564   -104.54344     435.5585    23.499081    22.154219   0.25834957    435.81685    -1984.527 
    9500   -102747.35   -93089.416     234.5303    20724    226883.78   -10.111113   -44.461787   -102.70981    116.83826    435.55265    23.505993    22.160736   0.26127628    435.81392   -2007.4908 
    9600   -102723.28   -93121.191    233.17423    20724     226601.9    49.977579    12.167916     60.03372    77.731102    435.33921    23.497145    22.152394   0.36799332    435.70721   -1987.7424 
    9700    -102709.4   -93074.512    233.97082    20724    226833.67    1.1734061    87.596197    13.290561    -97.36654    435.56259    23.503129    22.158036   0.25630612    435.81889   -2027.1765 
    9800   -102645.09   -93054.772    232.88844    20724    226818.35   -32.073899   -139.30384   -187.02779    230.10993    435.64303    23.500166    22.155242   0.21608359    435.85912   -2043.9803 
    9900   -102667.23   -93009.084     234.5354    20724    226746.06    24.973689   -136.67609    191.96765      19.6295    435.45396    23.501521    22.156519   0.31061959    435.76458    -2097.415 
   10000   -102650.31    -93039.26    233.39182    20724    226867.31     59.72919    191.71794   -16.180625     3.650255    435.53306    23.505669     22.16043   0.27107248    435.80413   -2066.2761 
   10100   -102737.99   -93062.932    234.94628    20724    226622.53   0.90649002   -43.092876    6.7777494    39.034597     435.2319    23.501111    22.156133   0.42165211    435.65355   -2049.2314 
   10200   -102597.82   -93033.561    232.25562    20724     226804.6    6.4313716    55.544132    183.77791   -220.02792    435.59711    23.500692    22.155738   0.23904293    435.83616   -2072.3282 
   10300   -102620.73    -92999.28     233.6445    20724    226738.83   -49.194855   -216.31276     18.59259    50.135602    435.35939    23.503699    22.158572   0.35790498     435.7173   -2107.4462 
   10400   -102630.38   -92994.479    233.99531    20724    226901.53   -5.7927833    132.95563   -187.83655    37.502566    435.34042    23.512642    22.167004   0.36739228    435.70781   -2111.2637 
   10500   -102664.44   -92981.882    235.12838    20724    226817.09    26.007694     49.70704   -243.20117    271.51721    435.25112    23.510678    22.165152   0.41203981    435.66316   -2130.1528 
   10600   -102595.22   -92945.692    234.32627    20724    226733.48    60.794384    254.51829   -213.62486    141.48972    435.23215    23.506857     22.16155   0.42152733    435.65367   -2169.3418 
   10700   -102677.98   -92951.653    236.19114    20724    226686.17    19.073372   -8.5763642    107.96311   -42.166629    435.27776    23.503173    22.158077   0.39871774    435.67648   -2165.0922 
   10800   -102564.87   -92899.243    234.71715    20724    226667.46    -27.48583    144.91196    96.767074   -324.13652    435.18618    23.504675    22.159493   0.44450963    435.63069   -2214.8096 
   10900   -102526.12   -92917.425     233.3347    20724    226718.26    1.8067231   -18.766813   -237.86049    262.04747     435.3692    23.502368    22.157318   0.35300199     435.7222   -2197.2647 
   11000   -102641.03    -92896.73    236.62774    20724    226857.79    2.9094207    8.9441446    48.478796   -48.694678    435.34704    23.510197    22.164699   0.36408181    435.71112   -2217.3201 
   11100   -102584.45   -92884.284    235.55586    20724    226668.59    30.054074    228.96608    27.611074   -166.41494    435.24607    23.503117    22.158024   0.41456535    435.66063   -2235.3923 
   11200   -102620.27   -92834.314    237.63913    20724    227035.73   -33.753871   -5.8917178   -197.76407    102.39418    435.68581     23.51027    22.164767   0.19469315    435.88051   -2276.0227 
   11300      -102559   -92840.819    235.99339    20724    226834.94   -74.986881   -10.071814   -122.98994   -91.898888    435.49113    23.505124    22.159916     0.292037    435.78316   -2271.4019 
   11400   -102559.68   -92811.842    236.71364    20724    226949.17    -106.5508    59.129526    -168.4671   -210.31483    435.53918    23.509744    22.164272   0.26801121    435.80719   -2296.8461 
   11500   -102421.51   -92819.532    233.17144    20724    226923.28    46.146338   -122.05049    283.47917   -22.989661    435.57885    23.507332    22.161998   0.24817612    435.82702   -2296.9309 
   11600   -102450.99   -92794.045    234.50631    20724    226783.48    7.9763058    119.87937    13.601182   -109.55164    435.42895    23.504135    22.158984   0.32312575    435.75207   -2324.8967 
   11700   -102499.75   -92792.389    235.73052    20724    226956.24    44.721792    73.060894   -70.772993    131.87748    435.74056    23.504677    22.159495   0.16731844    435.90788   -2326.0529 
   11800   -102451.79    -92804.21    234.27882    20724    226855.59    -0.730455    67.168925   -57.913332   -11.446958    435.64502    23.502041     22.15701   0.21509116    435.86011   -2314.0159 
   11900   -102497.25   -92771.412    236.17919    20724    226845.74    83.124798   -105.07942    81.752545    272.70126    435.57767    23.503348    22.158242    0.2487643    435.82644   -2353.9782 
   12000   -102464.93   -92748.222    235.95767    20724     226818.6    21.549559     63.96144    110.50738   -109.82014    435.54795    23.502743    22.157672   0.26362259    435.81158   -2376.3466 
   12100   -102607.18   -92700.933    240.56037    20724    226804.26   -23.262259    230.17801   -40.633652   -259.33113    435.56724     23.50148    22.156481   0.25397816    435.82122   -2424.0229 
   12200   -102450.03   -92704.729    236.65196    20724    226747.46    -77.69205   -35.072804   -73.546654   -124.45669    435.50687    23.500166    22.155242   0.28416733    435.79103   -2419.9996 
   12300   -102495.97   -92732.073    237.10349    20724    226786.06   -18.270261   -82.285349     8.888919    18.585646    435.36305    23.506048    22.160787   0.35607714    435.71912   -2395.5739 
   12400   -102438.04   -92734.056    235.64868    20724    226842.56    8.1266575     15.37363   -46.591814    55.598156    435.43898    23.506926    22.161615   0.31811059    435.75709   -2393.4026 
   12500   -102409.71   -92745.822    234.67498    20724    226928.09    84.990898   -48.726247    43.649926    260.04901    435.67194     23.50507    22.159865   0.20162753    435.87357   -2384.7461 
   12600   -102384.38   -92671.553    235.86344    20724     227101.8    6.7725249   -49.566929    -159.3032    229.18771     435.6766    23.513939    22.168227   0.19930041     435.8759   -2451.0456 
   12700   -102440.36   -92734.061    235.70491    20724    226777.38   -18.453634   -162.51519    51.313828    55.840465    435.67416    23.497203    22.152449   0.20051922    435.87468   -2397.1025 
   12800   -102372.38    -92691.69    235.08287    20724    226964.51    40.199435    135.66503    21.868867    -36.93559    435.70008    23.506197    22.160928   0.18756212    435.88764   -2438.8534 
   12900   -102413.98   -92701.447    235.85612    20724    226845.66    32.478586   -104.61861    82.410754    119.64362    435.56925    23.503571    22.158452   0.25297578    435.82222   -2433.2584 
   13000   -102345.77   -92648.799    235.47831    20724    226876.66    0.4718755   -9.8181137    349.17233   -337.93859    435.54268    23.505893    22.160642   0.26625799    435.80894    -2482.173 
   13100   -102476.32   -92638.288    238.90374    20724    226916.84   -43.496658    33.928307   -73.056999   -91.361281    435.73046    23.502909    22.157828   0.17236999    435.90283     -2493.64 
   13200   -102397.13   -92651.811    236.65231    20724    226908.55   -11.626442   -60.248834   -117.33137    142.70088    435.56073    23.507058     22.16174   0.25723527    435.81796   -2482.5853 
   13300    -102383.3   -92662.112     236.0665    20724    226979.08    15.495394    21.404394   -83.649723    108.73151    435.41327    23.514692    22.168937    0.3309638    435.74424   -2469.6768 
   13400   -102408.02   -92623.069    237.61473    20724    226886.59    -37.38515    254.04817   -233.30888   -132.89474    435.57201    23.505617    22.160381     0.251597     435.8236    -2512.206 
   13500   -102380.84   -92640.219    236.53831    20724    226872.26   -25.110556   -129.01545     131.3591   -77.675318    435.53185    23.505958    22.160702   0.27167717    435.80352   -2498.0967 
   13600   -102319.68   -92590.895     236.2508    20724    227029.93   -8.5753348   -99.217452   -29.152922    102.64437    435.52219    23.514385    22.168648   0.27650406     435.7987   -2544.6243 
   13700   -102355.71    -92588.55    237.18284    20724    226893.78    16.618418    15.306637   -364.00881    398.55742    435.57148    23.506003    22.160745   0.25186185    435.82334   -2553.5728 
   13800   -102334.67     -92577.5    236.94013    20724    226866.23     -47.6892   -43.058936   -253.71364    153.70497    435.81578    23.497987    22.153188   0.12970811    435.94549    -2563.243 
   13900   -102388.95   -92559.329    238.69955    20724    226898.76   -2.4408092    -12.18346    37.979624   -33.118592    435.60577    23.505336    22.160117   0.23471584    435.84048   -2584.6163 
   14000   -102311.71   -92556.727    236.88714    20724    226853.15    31.490615    44.145572    213.42485   -163.09857    435.50244    23.505762    22.160517   0.28637933    435.78882    -2590.913 
   14100   -102318.04   -92559.991    236.96151    20724    226714.62   -39.888817    92.423235   -31.317278   -180.77241    435.19725    23.506821    22.161516   0.43897359    435.63623   -2588.5649 
   14200   -102282.29    -92558.09    236.13943    20724    226619.15    124.47875    163.41628    68.212185    141.80778    435.41557    23.495979    22.151294   0.32981627    435.74538   -2601.2185 
   14300   -102243.31    -92523.74    236.02716    20724    226790.09   -16.030321    126.68183   -228.83621    54.063414     435.3984    23.505302    22.160084   0.33840052     435.7368   -2626.1138 
   14400   -102345.63   -92515.328     238.7161    20724    226755.25   -139.17871   -191.62607   -207.62543    -18.28463    435.33439    23.505224    22.160011    0.3704028     435.7048   -2629.2757 
   14500   -102284.14   -92496.607    237.67751    20724    226793.19    31.524655    38.647791    263.26589   -207.33971    435.49664    23.502812    22.157736   0.28927987    435.78592   -2656.0529 
   14600    -102349.2   -92512.465    238.87234    20724    226843.05   -16.087009   -74.545849   -85.389976     111.6748    435.55226    23.503894    22.158757    0.2614697    435.81373   -2639.0445 
   14700   -102301.06   -92462.099    238.92633    20724    226739.75    -48.91381   -271.03844    67.370622    56.926387    435.43318    23.501754     22.15674   0.32101007    435.75419   -2689.7334 
   14800   -102267.66   -92455.554     238.2742    20724    226846.95    -61.71627   -93.587095   -260.24499    168.68328    435.61159    23.502495    22.157438   0.23180326     435.8434   -2694.5845 
   14900   -102338.35   -92462.275    239.82758    20724    226660.66   -38.045598    77.996864   -73.354499   -118.77916    435.29418    23.501407    22.156412   0.39051186    435.68469   -2696.8601 
   15000   -102160.25   -92422.159    236.47673    20724    226766.98   -13.052341   -77.887616   -132.42969    171.16028    435.35895    23.505169    22.159959   0.35812421    435.71708    -2735.781 
   15100    -102169.6   -92437.464    236.33235    20724    226710.93   -26.219539   -29.294328    88.490611    -137.8549    435.42162    23.500573    22.155626   0.32679049    435.74841   -2721.3026 
   15200   -102232.12   -92441.015    237.76431    20724    226663.88   0.47456885   -40.131832   -41.522491     83.07803    435.16524    23.505055    22.159852   0.45497823    435.62022   -2722.2951 
   15300   -102162.43   -92360.509    238.02687    20724    226805.55   -33.967873    -81.29078   -26.980318    6.3674795    435.55679    23.501829     22.15681   0.25920532    435.81599   -2796.9236 
   15400   -102211.44   -92345.255    239.58746    20724    226753.98    -76.15372    21.231577   -135.30764   -114.38509    435.37737    23.503999    22.158855    0.3489141    435.72629   -2814.4774 
   15500   -102202.78   -92367.988    238.82511    20724    226800.02   -24.397973   -152.69062    46.469391    33.027308    435.38629    23.506144    22.160878   0.34445259    435.73075   -2793.7244 
   15600   -102116.22   -92282.983    238.78746    20724    226817.04   -42.456226   -146.95386    21.529748   -1.9445626    435.42671    23.505934     22.16068     0.324245    435.75096   -2877.1408 
   15700   -102176.31   -92309.208    239.60971    20724    226754.68    31.124276    130.03406   -217.64495    180.98372    435.23617    23.507847    22.162483    0.4195155    435.65568    -2857.416 
   15800   -102234.61   -92347.056    240.10638    20724    226584.65   -22.047961   -120.02848   -60.679839    114.56444    434.92982    23.507306    22.161974   0.57269052    435.50251   -2822.7699 
   15900   -102284.48   -92357.408    241.06605    20724    226696.07    25.957142    -5.375266   -21.412304      104.659    435.16315    23.506781    22.161478   0.45602656    435.61917   -2816.2495 
   16000   -102149.77   -92308.715     238.9772    20724    226629.69    74.278668   0.85068158   -108.59477     330.5801    435.01207     23.50742    22.162081   0.53156334    435.54364    -2868.163 
   16100   -102128.43   -92333.489    237.85728    20724    226633.35   -17.763697    92.100616   -235.21862    89.826919     434.6759    23.516698    22.170828   0.69965214    435.37555    -2839.387 
   16200   -102048.05   -92285.426    237.07251    20724    226499.85    40.215403   -12.609473   -26.107142    159.36283    434.77464    23.507101     22.16178   0.65027954    435.42492   -2893.7737 
   16300   -102163.84    -92297.55     239.5899    20724    226527.05    30.169094    122.15933   -201.63843    169.98639    434.87468    23.505808    22.160562   0.60026233    435.47494   -2884.1518 
   16400   -102150.88   -92303.216    239.13764    20724    226516.96   -52.251412     93.29792   -223.09593   -26.956228    434.93944    23.503535    22.158418   0.56787992    435.50732   -2875.7476 
   16500   -102240.31   -92312.681    241.07947    20724    226442.13   -36.762236   -184.03086   -20.450283    94.194436    434.73849    23.505083    22.159878   0.66835456    435.40685   -2869.9521 
   16600   -102079.85   -92270.229    238.21395    20724    226656.23   -88.650295   -78.000438    -24.51952   -163.43093    435.02862    23.508349    22.162957   0.52329232    435.55191   -2904.0436 
   16700   -102141.65   -92269.782    239.72555    20724    226539.44   -8.6068628    -9.123364    153.17374   -169.87096    435.06476    23.501315    22.156326   0.50521834    435.56998    -2912.423 
   16800   -102130.04   -92235.787    240.26904    20724     226485.2   -26.193058   -74.531797    126.21006   -130.25743    434.82308    23.505031    22.159829   0.62605853    435.44914   -2950.0123 
   16900   -102009.09   -92245.806    237.08873    20724    226441.74    8.9070508    2.0522758   -132.10357    156.77245    434.73394    23.505186    22.159974   0.67062805    435.40457   -2940.6766 
   17000   -102080.62   -92232.324    239.15317    20724    226755.59   -65.198824   -154.86795     99.98946   -140.71799    435.23727    23.507865      22.1625   0.41896379    435.65624   -2945.1606 
   17100   -102075.97   -92265.504    238.23441    20724    226564.03    76.748616    178.05429    11.870466    40.321097    435.00691    23.504154    22.159002   0.53414524    435.54105    -2925.962 
   17200   -102107.52   -92234.871    239.74433    20724     226457.3   -55.939466   -179.99991   -28.206718    40.388228     434.8875    23.501843    22.156823   0.59385111    435.48135    -2952.785 
   17300   -102031.58    -92217.77    238.31559    20724     226334.8   -128.03082   -244.19355   -122.57568   -17.323221    434.64195    23.502121    22.157085   0.71662345    435.35858   -2972.1401 
   17400   -102055.95   -92181.271    239.79372    20724    226588.68   -67.094759   -137.10031   -13.304999   -50.878971    434.75517    23.512237    22.166622   0.66001536    435.41518    -3004.783 
   17500   -102006.69   -92176.721    238.70794    20724    226225.67    5.8206441    28.648228   -95.354346    84.168051    434.83684    23.491189    22.146779   0.61917918    435.45602   -3025.1066 
   17600   -101973.25   -92170.643    238.04362    20724    226551.12    55.125195   0.51333013    60.584016    104.27824    434.72935    23.510986    22.165443   0.67292456    435.40228   -3025.8738 
   17700   -102112.64    -92197.69    240.77165    20724    226359.53   -73.723187   -292.62639     10.03357    61.423264    434.67272    23.502573    22.157511   0.70123948    435.37396   -3000.5732 
   17800   -102019.41   -92157.696    239.47876    20724    226414.04    108.01009    389.28817   -60.785923   -4.4719734    434.73096    23.503828    22.158695    0.6721189    435.40308    -3046.793 
   17900   -101922.59   -92086.845    238.84838    20724    226353.09   -9.7342101   -53.857043    242.76605   -218.11163    434.75761    23.499944    22.155033    0.6587941    435.41641   -3116.6276 
   18000    -102050.6   -92079.316    242.13971    20724    226374.64   -45.299181   -113.66991   -288.97687    266.74923    434.62628    23.504613    22.159435   0.72445757    435.35074   -3122.1745 
   18100   -101948.74    -92095.26    239.27883    20724    226356.98  -0.42060528    43.200205   -133.51757     89.05555    434.54118    23.505998     22.16074   0.76700813    435.30819   -3111.3172 
   18200   -101953.98   -92068.347     240.0598    20724    226269.02   -21.481483   -154.59691    66.125424    24.027037    434.63593    23.498869    22.154019   0.71963672    435.35556   -3138.9818 
   18300   -101967.26   -92078.659    240.13183    20724    226342.23   -5.9001017    38.519838    104.23654   -160.45668    434.38502    23.509457    22.164001   0.84508764    435.23011   -3129.3711 
   18400   -101928.18   -92054.984    239.75759    20724    226297.83   -43.018811   -181.97119    156.38256    -103.4678    434.33077    23.508619    22.163211   0.87221412    435.20299   -3153.6238 
   18500   -101957.47   -92064.777    240.23124    20724    226189.05   -34.517278   -48.570663    -90.87221    35.891038    434.28797    23.504126    22.158975     0.893617    435.18158   -3149.6459 
   18600   -101891.89   -92065.706    238.61606    20724    226333.16    50.914821    127.56179   -17.579623    42.762296    434.36915    23.509415    22.163962    0.8530254    435.22217   -3148.7887 
   18700   -101900.12   -92091.048    238.20061    20724    226117.02    99.884094    144.72364    241.29437   -86.365721    434.30822    23.499835     22.15493   0.88349206    435.19171   -3132.5198 
   18800   -101998.72   -92079.618    240.87244    20724    226099.59   -90.320061   -7.0123181   0.74769786   -264.69556    434.20595    23.501697    22.156685   0.93462514    435.14057   -3136.8932 
   18900   -101971.27   -92088.982    239.97856    20724    226160.39    -10.87159   -36.055335   -113.15588    116.59644    434.06583     23.50865     22.16324    1.0046838    435.07052   -3130.8374 
   19000   -101910.71   -92002.663     240.6041    20724     226483.6   -35.942239   -179.66517    32.735252    39.103201    434.54949    23.512346    22.166725   0.76285511    435.31234   -3208.9632 
   19100   -101878.26   -92031.776    239.10906    20724     226101.3    19.985455   -77.711799   -133.36641    271.03458    434.17645    23.502584    22.157522   0.94937573    435.12582   -3194.5821 
   19200   -101834.73    -92012.85    238.51164    20724    226489.16    83.137377   -62.436561    229.70207     82.14662     434.4453    23.515454    22.169655   0.81494887    435.26025   -3205.3189 
   19300   -101853.62   -91990.807    239.50566    20724    226183.86    73.417536    73.333009    222.53965   -75.620048    434.33257    23.502649    22.157583   0.87131307    435.20389   -3237.4127 
   19400   -101741.43    -91935.72    238.11898    20724     226446.1    38.704704   -55.372472   -45.339048    216.82563    434.69205    23.506544    22.161255   0.69157308    435.38363     -3283.52 
   19500   -101811.81   -91946.792    239.55906    20724    226428.61    44.733994    61.972615   -216.99964    289.22901    434.53559    23.509868    22.164389   0.76980723    435.30539   -3274.4687 
   19600   -101877.05   -91927.771    241.60529    20724    226466.45    -62.00397   -9.5790581   -141.40748   -35.025372    435.00066    23.499261    22.154388   0.53727235    435.53793   -3290.7406 
   19700   -101886.77   -91907.987    242.32167    20724    226445.97   -75.208342    166.38499   -329.41622   -62.593797    435.12979    23.494711    22.150099    0.4727071    435.60249   -3312.1368 
   19800   -101812.59   -91910.061       240.47    20724    226547.13    9.1003083    -128.6033    143.18191    12.722309    434.97609     23.50411     22.15896   0.54955629    435.52564   -3311.4574 
   19900   -101664.25   -91818.593    239.08883    20724    226516.42    19.975741    32.653054  -0.51133155      27.7855    434.86315    23.505569    22.160335   0.60602634    435.46917   -3404.2369 
   20000   -101803.83   -91817.799    242.49769    20724    226393.88   -106.91687   -40.945645    94.804024   -374.60898    434.95509    23.496726    22.151999   0.56005405    435.51515   -3404.3855 
   20100   -101833.59   -91879.175    241.72992    20724     226376.1    25.969763    -117.6975    103.80202    91.804774    434.98036    23.495121    22.150486   0.54742032    435.52778   -3350.5195 
   20200    -101855.8     -91872.7    242.42646    20724    226473.92   -59.461899   -111.62659    180.60944   -247.36854    435.01559    23.499244    22.154373   0.52980339     435.5454   -3353.3259 
   20300   -101836.25   -91894.453    241.42353    20724    226493.66    72.994779    29.961314    110.33197    78.691054    434.88174    23.503885    22.158749   0.59673207    435.47847   -3337.2092 
   20400   -101803.96   -91912.773    240.19463    20724    226358.89   -19.187157   -83.603586   -46.295009    72.337125    434.81027    23.498822    22.153975   0.63246385    435.44274   -3318.4708 
   20500   -101785.44   -91893.702    240.20791    20724    226543.35    29.436754   -64.091612   -347.56027    499.96214     434.7706    23.509468    22.164012    0.6523025     435.4229   -3336.0911 
   20600   -101704.48   -91832.741    239.72228    20724    226382.58    51.703549    191.95045    32.095106   -68.934909    434.76219    23.501351    22.156359    0.6565067    435.41869   -3403.9842 
   20700   -101647.84   -91819.214    238.67538    20724    226352.37    66.435321    16.334114    256.25015   -73.278304     434.8518    23.497362    22.152598   0.61170037     435.4635   -3417.3848 
   20800   -101782.71   -91803.537    242.33111    20724    226228.71    30.190194   -276.19256    223.85146    142.91169    434.50201    23.500396    22.155459   0.78659306    435.28861   -3438.2275 
   20900   -101677.24   -91757.372    240.89099    20724     226307.4     -99.0802   -94.195728   -217.14794    14.103062    434.20525    23.512514    22.166883   0.93497415    435.14023   -3475.2481 
   21000   -101749.06   -91793.286    241.76293    20724    226319.45    5.2976025   -2.4549176   -92.903372     111.2511    434.07104    23.516774      22.1709    1.0020775    435.07312   -3447.6711 
   21100   -101704.04   -91768.265     241.2774    20724    226259.86   -44.256672    51.628187   -72.093051   -112.30515    434.33931    23.506415    22.161133   0.86794255    435.20726   -3473.0709 
   21200   -101811.91   -91822.004    242.59182    20724    226349.95    95.090557   -85.056278    215.03687    155.29108    434.44011    23.508367    22.162973   0.81754381    435.25766   -3426.9761 
   21300   -101786.95   -91775.915    243.10503    20724    226231.25   -127.60498   -106.99044    -266.4436   -9.3809005      434.171    23.509484    22.164027   0.95210175     435.1231   -3464.3533 
   21400   -101725.44    -91778.58    241.54661    20724    226289.54    41.483992    43.243202    44.801061    36.407714    434.08946    23.514721    22.168964   0.99286995    435.08233    -3470.324 
   21500   -101760.79   -91763.147    242.77963    20724    226281.95    54.785797    129.34169   -45.535825    80.551526    434.14748    23.512756    22.167111   0.96386205    435.11134   -3487.5375 
   21600    -101716.8   -91726.106    242.61097    20724    226098.92   -53.152934   -109.14816    50.237319   -100.54796    434.01821    23.506744    22.161444    1.0284954     435.0467   -3525.5783 
   21700   -101637.19   -91701.289    241.28029    20724    226258.24    78.050963    141.55767    198.29178   -105.69655    434.08066    23.513333    22.167656   0.99727214    435.07793   -3552.9029 
   21800   -101620.27   -91695.772    241.00353    20724    226303.97   -82.708345   -74.393121    20.189985    -193.9219     434.3186    23.509267    22.163822   0.87830227     435.1969   -3549.3596 
   21900   -101773.72   -91742.018    243.60683    20724       226315    77.609136    8.1301011   -27.676483    252.37379    434.29323    23.510527     22.16501   0.89098739    435.18421   -3512.4573 
   22000   -101668.32   -91702.756    242.00068    20724    226411.38    -10.06396   -123.41217    28.309797    64.910493    434.50875    23.509699     22.16423   0.78322738    435.29197   -3544.8058 
   22100   -101701.77    -91750.39    241.65617    20724    226036.63    20.169454   -112.34573    87.949455    84.904639    434.19228    23.498794    22.153949   0.94145841    435.13374   -3510.5911 
   22200   -101692.49   -91690.321    242.88975    20724    226349.78    77.529773    97.314001    73.465013    61.810306    434.30662    23.511971    22.166371   0.88428967    435.19091   -3568.7934 
   22300   -101719.65    -91647.72    244.58358    20724    226267.68   -68.975606   -69.415787   -204.85138    67.340346    434.33863     23.50684    22.161534   0.86828694    435.20691   -3606.8458 
   22400   -101656.93   -91652.316    242.94896    20724    226257.47    40.369338    80.488803   -269.89978    310.51899    434.25159    23.508665    22.163255   0.91180669    435.16339   -3607.8395 
   22500   -101705.79   -91648.127    244.23729    20724    226307.39   -10.132162   -71.307657    196.56127    -155.6501    434.34315     23.50878    22.163363   0.86602348    435.20918   -3610.0007 
   22600   -101579.95   -91593.207    242.51514    20724    226332.92   -26.811736   -229.24953    104.88034     43.93398    434.54619    23.504613    22.159435     0.764507    435.31069   -3663.0592 
   22700   -101617.48   -91611.112    242.99166    20724    226150.46   -31.158595    103.41679   -118.68327    -78.20931     434.2823    23.502274     22.15723   0.89645125    435.17875   -3651.5505 
   22800   -101621.44   -91595.356    243.47039    20724    226216.41   -6.9114303   -21.312466   -323.86293    324.44111    434.40303    23.502434     22.15738   0.83608571    435.23911     -3668.85 
   22900   -101666.04   -91608.308    244.23895    20724    226136.88   -68.620913   -335.22309   -132.39966    261.76001    434.40088     23.49836     22.15354    0.8371576    435.23804   -3656.6882 
   23000   -101588.47   -91628.101    241.87457    20724    226027.98    87.766756    83.572887    60.589762    119.13762    434.19234    23.498343    22.153523   0.94142934    435.13377   -3647.6493 
   23100   -101590.01   -91592.484    242.77695    20724    226171.14   -23.777516    20.990196   -361.50752    269.18477      434.131    23.507444    22.162104    0.9720977     435.1031   -3676.4865 
   23200   -101557.49   -91596.186    241.89723    20724    225898.54    33.980983    -214.0876    419.65989   -103.62934    433.88545     23.49992     22.15501    1.0948773    434.98032     -3685.13 
   23300   -101621.77   -91587.671    243.66501    20724    226053.18   -101.57803    20.940156    9.7820732   -335.45632    434.07403    23.502855    22.157777    1.0005828    435.07462   -3684.4915 
   23400   -101545.88   -91587.784    241.81947    20724    226216.95    14.740388   -127.96752    264.41091   -92.222223    434.07372    23.511376     22.16581    1.0007414    435.07446   -3685.4793 
   23500   -101533.44   -91602.552    241.15869    20724    226265.99    32.501049    146.04139   -314.76806    266.22982    434.28328     23.50825    22.162864   0.89596035    435.17924   -3671.1561 
   23600   -101652.42   -91590.918    244.33059    20724    226070.29   -41.376863    -11.92155   -476.43185    364.22282    434.16131    23.501382    22.156389   0.95694373    435.11826   -3687.5206 
   23700   -101519.37   -91556.848     241.9268    20724    226201.54    45.326175    -62.13978   -13.770514    211.88882    434.31757    23.503974    22.158832   0.87881503    435.19638   -3720.4334 
   23800   -101417.99   -91544.929    239.75439    20724    226061.02    82.795553   -30.701448     102.0054    177.08271    434.26847       23.498      22.1532   0.90336448    435.17184   -3740.2826 
   23900   -101586.15   -91532.166    244.14785    20724    225948.87   -40.266046   -60.140857   -199.81429    139.15701    434.14601    23.495484    22.150828   0.96459551     435.1106   -3751.1624 
   24000   -101571.29   -91583.161    242.54881    20724    226007.86    12.890153   -126.50465    102.12478    63.050322    434.01669    23.502052     22.15702    1.0292572    435.04594   -3703.8996 
   24100   -101540.93   -91546.566    242.70011    20724    225997.76    1.4964363     145.6888    164.56441    -305.7639     434.2165    23.496118    22.151426   0.92934811    435.14585    -3739.569 
   24200   -101477.58   -91574.459     240.4844    20724    225990.63    37.127836   -20.149288   -67.626908     199.1597    433.95207    23.502905    22.157825    1.0615674    435.01363   -3714.4358 
   24300   -101581.09   -91568.452    243.14378    20724    226094.09     2.093987   -19.049671   -69.905991    95.237623    434.09146     23.50451    22.159337   0.99186925    435.08333   -3717.7469 
   24400   -101519.13   -91565.531     241.7103    20724    225825.96   -48.515788   -12.870996    124.83049   -257.50686    433.72912    23.500378    22.155442    1.1730423    434.90216   -3727.7685 
   24500   -101607.17   -91565.034    243.86016    20724    225679.36   -2.2168061   -10.885985   -8.0331624     12.26873    433.64005    23.495162    22.150525    1.2175759    434.85762   -3734.9643 
   24600   -101494.98    -91544.67    241.63037    20724    225863.27     41.72632   -45.290526    65.647981     104.8215    433.59552    23.505941    22.160686    1.2398419    434.83536   -3754.3179 
   24700    -101589.5   -91557.214    243.62096    20724    225940.41    14.686967    38.338262    39.946693   -34.224052    433.63625     23.50885    22.163429     1.219476    434.85572    -3739.728 
   24800   -101525.99   -91523.911     242.8875    20724    225760.44   -11.603865   -92.172124   -120.27282    177.63335    433.40542    23.505742    22.160499    1.3348884    434.74031   -3777.3445 
   24900   -101454.38   -91493.239    241.89337    20724    225813.23    27.157881    136.97791    138.57366   -194.07793    433.44159    23.507509    22.162165    1.3168064    434.75839   -3807.3975 
   25000   -101507.81   -91482.662    243.44755    20724    226004.78   -11.260092    142.95358  -0.11440073   -176.61946     433.6985    23.510511    22.164995    1.1883488    434.88685   -3812.5858 
   25100   -101399.55   -91419.116    242.36178    20724    225993.57    33.940331    28.591176    99.596946   -26.367128    433.56754    23.513478    22.167792    1.2538322    434.82137   -3881.5692 
   25200   -101492.91   -91407.021    244.92258    20724    226052.41   -28.383449   -94.907232   -52.294391    62.051277    433.71044    23.512664    22.167025    1.1823794    434.89282   -3888.7247 
   25300   -101456.42    -91405.28     244.0788    20724    226038.44   -19.549323   -40.856431    303.82939   -321.62093    433.89457    23.506948    22.161636    1.0903127    434.98489   -3891.2442 
   25400   -101390.65   -91347.942    243.87417    20724    225999.83    5.1089838   -19.665291    73.014373   -38.022131    434.21023    23.496396    22.151688   0.93248736    435.14271   -3951.3041 
   25500   -101430.65   -91385.855    243.92466    20724    226092.63    25.385973   -30.094358    21.545042    84.707236    434.07302    23.504933    22.159736     1.001091    435.07411    -3916.826 
   25600   -101421.14   -91386.935    243.66768    20724    226131.28   -5.8947329    202.23817   -37.246661   -182.67571    434.08043    23.506742    22.161441   0.99738719    435.07781   -3911.6171 
   25700   -101389.91   -91356.084    243.65841    20724    226265.79    31.266209    63.465623     320.6893   -290.35629    434.21826        23.51    22.164513   0.92846796    435.14673   -3941.8094 
   25800   -101426.15    -91328.71    245.20317    20724    226309.93    37.147903    191.04035    39.135523   -118.73216    434.07081    23.516286    22.170439    1.0021959      435.073   -3968.3294 
   25900   -101314.21   -91299.721     243.1888    20724    226233.45   0.55547757   -38.857386   -224.01211    264.53593    434.20095    23.508788    22.163371   0.93712533    435.13807   -3996.9295 
   26000   -101344.01   -91289.845    244.15219    20724    226350.51    10.722744    20.095707   -9.2268727    21.299397    434.15161    23.516205    22.170363     0.961793    435.11341    -4004.329 
   26100   -101371.63   -91292.564    244.75689    20724    226387.55    12.660268   -22.423723    35.183762    25.220766    434.09236    23.519734    22.173691   0.99141848    435.08378   -4002.8329 
   26200   -101354.93   -91254.014    245.28762    20724    226458.48   -12.246901    54.489544    33.055676   -124.28592    434.21296    23.520151    22.174084    0.9311196    435.14408   -4039.0535 
   26300   -101263.36   -91240.995    243.38019    20724    226317.51    23.034842    117.05432   -176.24914    128.29935    434.29875    23.510507    22.164992   0.88822462    435.18698    -4060.533 
   26400    -101382.2   -91239.252    246.30818    20724    226202.83    96.169851    184.48408    208.30092   -104.27545    433.99047    23.512897    22.167244    1.0423639    435.03284   -4068.7645 
   26500   -101352.41   -91232.085      245.759    20724    226524.36   -108.62007   -124.00871   -66.916176   -134.93533    434.39666    23.518598    22.172619    0.8392686    435.23593   -4058.4858 
   26600   -101280.63   -91259.718    243.34471    20724    226321.75     20.32644    122.36491    132.29428   -193.67987    434.28123    23.511202    22.165647   0.89698317    435.17822   -4042.1264 
   26700   -101401.49   -91259.494    246.28518    20724    226429.02   -17.063296    45.227908   -162.11066    65.692864    434.47457     23.51154    22.165965   0.80031742    435.27488   -4039.5162 
   26800   -101304.42   -91230.262    244.63776    20724    226272.34    12.866615    169.91124     17.31339   -148.62478     434.2687    23.508974    22.163546    0.9032508    435.17195   -4075.6248 
   26900    -101228.5   -91190.744    243.75392    20724    226331.37    40.900677    1.9048245    151.63987   -30.842661    434.39522    23.508617    22.163209   0.83999239    435.23521   -4114.7166 
   27000   -101393.42    -91224.98    246.92738    20724    226065.01   -66.461802   -135.50187    96.149603   -160.03314    434.09677    23.502854    22.157777   0.98921633    435.08598   -4085.6415 
   27100   -101364.86   -91233.145    246.03558    20724     226316.2   -29.306601    26.693197   -1.2938896   -113.31911    434.28565    23.510794    22.165262   0.89477288    435.18043   -4071.6362 
   27200    -101390.1   -91218.462    247.00502    20724    226339.35   -48.352017   -128.24437    71.395075   -88.206756    434.34317     23.51044    22.164928    0.8660145    435.20919    -4087.767 
   27300   -101282.17   -91208.502    244.62594    20724     226367.4   -16.379677    13.093043   -83.062781    20.830706      434.294    23.513228    22.167556   0.89060063     435.1846   -4099.2383 
   27400   -101345.68   -91203.731    246.28408    20724    226292.24   -31.074988   -79.919894   -305.05501    291.74994    434.15589    23.513063    22.167401   0.95965626    435.11554   -4105.9125 
   27500   -101302.77   -91202.836    245.26377    20724    226355.92   -53.911403    -285.7702   -135.70509    259.74108    434.20682    23.514992    22.169219   0.93419249    435.14101   -4104.7864 
   27600   -101307.21   -91229.504    244.72395    20724    226254.58    79.553052   -90.576824    275.20691     54.02907    434.06383    23.513599    22.167906    1.0056844    435.06952   -4089.0266 
   27700   -101321.03   -91202.044    245.72645    20724    226418.79    75.177326    43.798566    153.32062    28.412791    434.37961    23.513579    22.167887   0.84779526     435.2274   -4112.1741 
   27800   -101310.56   -91184.223    245.90489    20724    226296.75     9.035126   0.68637218   -34.632629    61.051634     433.9238    23.519584    22.173549    1.0757013     434.9995   -4131.8737 
   27900   -101355.65   -91198.387    246.65588    20724    226416.48   -25.302317   -25.426809    35.878961   -86.359103     434.3222    23.515013    22.169239    0.8765008     435.1987   -4115.4572 
   28000   -101267.54   -91135.173    246.05122    20724    226360.29    51.741065   -52.560378    213.81332   -6.0297505    433.92499    23.522853    22.176631    1.0751057    435.00009    -4184.532 
   28100   -101374.01   -91147.725    248.33194    20724     226496.6   -62.407288   -34.942238   -118.74269   -33.536935    434.37516    23.517739    22.171809   0.85001948    435.22518   -4165.0216 
   28200      -101325   -91167.915    246.65168    20724    226180.69   -15.027956   -81.229521   -14.244553    50.390206    434.00765    23.511281    22.165721    1.0337758    435.04142   -4154.8262 
   28300   -101378.52   -91163.956    248.04743    20724    226144.26   -55.193551   -27.463765    78.917539   -217.03443    434.07375    23.507597    22.162248     1.000725    435.07448   -4161.4268 
   28400   -101245.73   -91136.567    245.48789    20724    226171.76   -82.857318    -80.29811   -176.02627    7.7524227    434.15434    23.506844    22.161538   0.96043147    435.11477   -4185.7107 
   28500   -101339.34   -91193.172    246.38644    20724    226130.88   -48.654969   -114.38842    114.85872    -146.4352     434.0511    23.507515    22.162171    1.0120482    435.06315   -4135.3266 
   28600   -101291.88    -91130.03    246.76731    20724    226154.57   -11.838529   -177.75111    23.039668    119.19585    434.16065     23.50578    22.160535   0.95727468    435.11793   -4199.2775 
   28700   -101208.55   -91139.165    244.52194    20724    226266.96   -33.056161  -0.92512161   -113.95531    15.711947    434.02409    23.515319    22.169528    1.0255561    435.04964   -4185.2454 
   28800   -101226.86   -91128.478    245.22613    20724    226161.64    67.785699   -4.7737381   -10.340667     218.4715    433.86891    23.514049    22.168331    1.1031465    434.97205   -4206.9561 
   28900   -101329.44   -91108.675    248.19807    20724    226390.17   -125.67413    21.664858    24.460185   -423.14742    434.12261    23.519051    22.173046   0.97629319    435.09891   -4211.9596 
   29000   -101303.75   -91083.349    248.18923    20724    226324.29   -34.009521   -65.310041    51.369969   -88.088491    434.25205    23.512124    22.166516   0.91157561    435.16362   -4243.9092 
   29100   -101287.04   -91106.797      247.214    20724    226234.74    7.5486144    173.86659    226.73384   -377.95458    434.11854    23.511086    22.165537   0.97833035    435.09687    -4227.641 
   29200   -101171.63   -91096.921    244.65114    20724    226432.86   -78.241164   -199.57635    33.309409   -68.456548    434.14187    23.520747    22.174645     0.966663    435.10854    -4226.212 
   29300   -101214.47   -91095.781    245.71913    20724     226109.9   -30.266012   -65.649259   -128.34276    103.19398       433.89    23.510788    22.165256    1.0925994     434.9826   -4240.8106 
   29400   -101222.95   -91044.619    247.16757    20724    226145.87     7.280058    126.05054   -117.76143    13.551064    433.95785     23.51082    22.165286    1.0586758    435.01652   -4294.2822 
   29500   -101183.93   -91062.673    245.78156    20724    226198.89    -14.29104    56.620126   -40.920979   -58.572267    433.78965    23.518134    22.172181    1.1427759    434.93242   -4272.7859 
   29600   -101176.46   -91022.907    246.56579    20724    226122.92   -35.914151   -153.85271    280.96871   -234.85846    433.73097    23.515775    22.169958    1.1721148    434.90309   -4317.6967 
   29700   -101217.79   -91035.432    247.26539    20724     226179.5   -43.094802   -7.1618181     55.35736   -177.47995    433.99351    23.511602    22.166023    1.0408452    435.03435   -4304.1286 
   29800   -101200.05   -91085.236    245.62498    20724    226021.23    86.897899   -66.455003    466.61666   -139.46796    433.68997    23.511598     22.16602    1.1926145    434.88259   -4267.8208 
   29900    -101209.6    -91079.51    245.99612    20724    226058.86    2.0508865   -214.24816     137.5162    82.884625    433.49399     23.51887    22.172875    1.2906053    434.78459   -4267.9513 
   30000    -101215.6   -91019.582      247.597    20724    225934.77    16.684661    17.975625   -282.06997    314.14833    433.35303    23.516237    22.170393    1.3610826    434.71412   -4332.3997 
   30100   -101172.46   -91009.995    246.78223    20724    225777.96  0.060628685    144.76521   -117.47895   -27.104374    433.22017    23.511679    22.166096    1.4275149    434.64769   -4345.8761 
   30200   -101222.64   -90990.352    248.47766    20724     225627.8   -88.083396   -100.70488    7.1216118   -170.66692    432.88109    23.513063    22.167401    1.5970556    434.47814   -4370.3064 
   30300   -101162.83   -91006.425    246.63511    20724    225752.18   -1.1658664    107.44485    -114.8789    3.9364562    433.00817    23.516091    22.170256    1.5335141    434.54169   -4354.6381 
   30400   -101170.38   -90982.275    247.40494    20724    225609.66    115.11007    73.524906   -99.502559    371.30787    433.06894    23.507018    22.161702    1.5031317    434.57207   -4389.4576 
   30500   -101128.14   -91009.442     245.7194    20724     225616.9   -20.770475    116.25035   -15.019721   -163.54205    433.22793    23.503081    22.157991    1.4236357    434.65156   -4356.6281 
   30600   -101217.24   -91014.824    247.75244    20724    225472.24   -11.925679   -350.10365    182.14193    132.18468    432.72686    23.509145    22.163707    1.6741704    434.40103   -4358.9467 
   30700   -101213.33   -91004.001    247.92018    20724    225845.09    12.397846   -20.294457   -168.29802    225.78601    432.86943      23.5247    22.178372    1.6028861    434.47231   -4362.5302 
   30800   -101133.18   -90989.954    246.31492    20724     225593.5     26.81776   -94.480235   -138.21221    313.14572    432.88384    23.511201    22.165646    1.5956781    434.47952    -4383.807 
   30900   -101168.43   -90954.566    248.03044    20724    225932.78   -47.182674   -132.68564   -172.24964    163.38726    433.40504    23.514722    22.168965    1.3350797    434.74012   -4407.6604 
   31000   -101052.65   -90980.451     244.5902    20724    225801.37    39.246453    26.714961    20.961284    70.063113    433.27402    23.511437    22.165868     1.400589    434.67461   -4388.7662 
   31100   -101127.46   -90958.728    246.93447    20724    225950.91   -1.1998913    -105.2247     291.1862   -189.56117    433.52514    23.512408    22.166784    1.2750288    434.80017   -4406.0844 
   31200   -101230.01    -90941.73    249.83744    20724     225834.3   -5.9168701    39.769097   -96.936937     39.41723    433.23639    23.514173    22.168447    1.4194047     434.6558   -4430.8158 
   31300   -101170.14   -90908.714     249.1853    20724    225867.31   -98.799336    160.82225   -74.391072   -382.82919      433.168    23.517748    22.171817    1.4536021     434.6216   -4459.2004 
   31400   -101054.29   -90912.983    246.26832    20724    225936.76    41.313184    104.64303    188.08221   -168.78568    433.28845    23.518093    22.172143    1.3933753    434.68182   -4458.5728 
   31500   -101045.75   -90870.143    247.10134    20724    225829.08   -54.713333   -68.179482    353.44318    -449.4037     433.0917    23.517829    22.171894    1.4917524    434.58345    -4501.182 
   31600   -101094.81   -90881.752    248.01091    20724    225740.95   -103.12494   -161.74012   -178.50576    30.871075    432.90037    23.518434    22.172465    1.5874157    434.48778   -4489.7576 
   31700   -101122.59   -90889.117     248.5065    20724    225900.94   -55.102859    18.321837   -240.12558    56.495172    433.24171    23.517497    22.171582     1.416747    434.65845   -4483.2034 
   31800   -101118.87   -90903.927    248.05651    20724    225771.86    22.160201    11.168299   -153.83412    209.14643    433.44467    23.505272    22.160056    1.3152636    434.75994   -4476.6172 
   31900   -101118.97   -90863.864    249.03185    20724    225866.12   0.51543817   -64.281412    267.83369   -202.00597    433.27413    23.514805    22.169043    1.4005336    434.67467   -4514.1332 
   32000   -101023.52   -90869.733    246.57158    20724    225979.52    15.777667    63.426367    31.941191   -48.034559    433.20616    23.522553    22.176347    1.4345201    434.64068    -4505.712 
   32100   -101052.95   -90892.044    246.74445    20724    225968.47    75.089409    48.141708    309.49179   -132.36527     433.3558    23.517916    22.171976    1.3596976     434.7155   -4486.8913 
   32200   -101141.96   -90872.924    249.37025    20724    226006.31   -25.978056    102.08539   -96.003378   -84.016182     433.4378     23.51766    22.171735    1.3187014     434.7565   -4501.4674 
   32300   -100973.71    -90815.83    246.67086    20724    226072.14    -23.37026    169.26143   -74.586501   -164.78571    433.36294    23.523117    22.176879    1.3561324    434.71907      -4557.1 
   32400    -101001.6   -90828.216    247.04731    20724    226140.43   -50.681451   -205.59129    141.63503   -88.088088    433.42571    23.524965    22.178622    1.3247436    434.75046   -4542.3912 
   32500   -100981.61   -90807.686    247.06041    20724    225993.69   -5.5251604   -132.97539   -177.51103    293.91095    433.51644     23.51487    22.169105    1.2793808    434.79582   -4570.6939 
   32600   -101027.87   -90835.049    247.51943    20724    225925.03   -25.142922   -65.508186    168.44466   -178.36524    433.52756    23.510996    22.165452    1.2738178    434.80138   -4546.8164 
   32700   -101026.32   -90777.449    248.88052    20724    226134.71   -105.69517   -325.74486   -248.06602    256.72537    433.65682    23.518398    22.172431    1.2091915    434.86601    -4594.848 
   32800   -101105.21   -90780.261    250.72806    20724     225853.8   -2.4694081   -106.22741   -27.097064    125.91625    433.49807    23.508089    22.162712    1.2885629    434.78664   -4608.4369 
   32900   -101006.03   -90766.236    248.66016    20724    225984.62   -75.947981   -27.110284   -132.38322   -68.350437    433.58693    23.512487    22.166858    1.2441341    434.83107   -4615.0413 
   33000   -100948.95   -90750.956    247.64504    20724    225787.35   -5.6533564    49.844045   -75.419309     8.615195    433.25841    23.511131     22.16558    1.4083963     434.6668   -4638.6673 
   33100    -101016.2   -90755.934    249.15725    20724    226037.15   -66.388241   -81.552466   -68.000201   -49.612055    433.47749    23.518188    22.172232    1.2988562    434.77634   -4624.9152 
   33200   -101003.43   -90747.092    249.06187    20724    225886.85   -18.356286   -204.47989    158.52498    -9.113951    433.21356    23.517528     22.17161    1.4308212    434.64438   -4642.1685 
   33300   -100888.53   -90735.616    246.55034    20724       225919   -26.256764    200.63346   -225.88821   -53.515549     433.2171    23.519105    22.173097    1.4290476    434.64615   -4653.2981 
   33400   -100940.11   -90725.886    248.03923    20724    225856.29    101.79614   -17.504367    55.044282    267.84851    433.12865    23.518242    22.172283    1.4732736    434.60193   -4671.8647 
   33500   -100967.64   -90699.923     249.3381    20724    225873.99   -42.987062   -145.25732   -266.98042    283.27655    433.30036    23.514503    22.168759    1.3874218    434.68778    -4691.711 
   33600   -100950.04   -90718.589    248.45756    20724    225761.47   -34.640217   -34.352689    3.3030603   -72.871021    433.00681    23.516613    22.170748    1.5341938    434.54101    -4678.768 
   33700   -100864.66   -90674.931    247.44432    20724    225794.75    39.132122   -53.405118    315.23023   -144.42875    433.04246    23.517378    22.171469    1.5163709    434.55883    -4727.646 
   33800    -100920.4   -90693.852     248.3383    20724    225795.48   -33.248767    10.491291    114.86411    -225.1017    433.24901    23.511809    22.166219    1.4130944    434.66211   -4703.9253 
   33900    -100902.4   -90667.758    248.53493    20724    225854.54     124.4139    203.30682    9.6821948    160.25269    433.45381    23.509328     22.16388    1.3106972     434.7645   -4737.6229 
   34000   -100922.63   -90683.137    248.65277    20724    225843.83    46.192915    73.787308   -215.32268    280.11411    433.23275    23.514768    22.169008    1.4212256    434.65397   -4720.4887 
   34100   -101020.96   -90700.524    250.61825    20724     225994.8    63.789327   -121.02976    149.45323    162.94451    433.17445    23.524208    22.177909    1.4503756    434.62482   -4700.9112 
   34200   -100874.81   -90670.712    247.79314    20724    225916.62    37.764054    155.34068    246.33884   -288.38735     433.2498    23.518094    22.172144    1.4126999     434.6625   -4731.2547 
   34300   -100948.84    -90706.38     248.7248    20724    225805.63    98.583761    118.16631    1.6786812    175.90629    433.33341    23.510048    22.164558    1.3708952     434.7043   -4704.3395 
   34400   -100912.74   -90681.913    248.44238    20724    225765.73    85.691829    112.39094    132.89477    11.789773       433.41    23.505894    22.160642    1.3326011     434.7426   -4730.1451 
   34500   -100879.51   -90653.853    248.31673    20724    225952.65    125.07875    167.12397    107.13362    100.97866    433.53597    23.512205    22.166592    1.2696168    434.80558   -4754.2631 
   34600   -100896.05   -90599.182    250.04602    20724    226039.06   -56.366869    28.355652   -300.36947    102.91321    433.95267    23.505407    22.160183    1.0612627    435.01394   -4799.3678 
   34700   -100871.78   -90637.036    248.53738    20724    226059.73    60.306561   -31.916075    76.737903    136.09786    433.83819    23.509583     22.16412    1.1185027     434.9567   -4766.9561 
   34800   -100847.64   -90576.631    249.41815    20724    226068.48    12.155179    61.590986     93.63533   -118.76078    433.67964    23.514335      22.1686    1.1977786    434.87742   -4826.9519 
   34900   -100907.89   -90596.637    250.39527    20724    226027.27    67.136856    27.105569    153.74359    20.561406    433.61881    23.513841    22.168135    1.2281934    434.84701   -4811.0047 
   35000   -100837.45   -90583.648    249.00016    20724     226078.6   -34.474681    68.622437    20.101737   -192.14822    433.59396    23.517185    22.171287    1.2406207    434.83458   -4819.8663 
   35100   -100934.17   -90599.572    250.96217    20724    226112.52   -82.504138   -190.44271   -10.711183   -46.358524    433.63011    23.517968    22.172026    1.2225469    434.85265   -4800.8953 
   35200   -100967.31   -90626.135    251.12186    20724    225939.92   -4.6544562   -87.131671   -224.78352    297.95182    433.40008    23.515229    22.169443    1.3375605    434.73764   -4787.7556 
   35300   -100891.25   -90563.173    250.80384    20724    225998.95   -34.671382    -21.36465   -81.988347  -0.66114853    433.63342    23.511972    22.166373    1.2208924    434.85431   -4845.0744 
   35400   -100907.45    -90595.21    250.41919    20724    225965.88    17.929682     -86.6517    373.65772   -233.21698    433.58707    23.511508    22.165935    1.2440653    434.83113   -4816.1248 
   35500   -100829.05   -90558.171    249.41485    20724    225969.72    63.399439   -112.08761    96.690814    205.59512    433.46325    23.515066    22.169289    1.3059753    434.76922   -4857.7163 
   35600   -100835.38   -90568.645    249.31417    20724     225922.5   -14.508861   -125.29992    -209.3374    291.11074    433.40352    23.514229      22.1685      1.33584    434.73936   -4845.2164 
   35700   -100828.59   -90547.452    249.66412    20724    225949.73   -14.009375   -25.011318    52.163846   -69.180653    433.35191    23.517046    22.171156    1.3616457    434.71355   -4867.6095 
   35800   -100781.97   -90556.214    248.31929    20724    225871.47    41.334051    43.750966    128.10773   -47.856546    433.14905    23.518478    22.172506     1.463075    434.61212   -4863.0925 
   35900   -100903.24   -90574.087    250.83001    20724    225985.68    7.2479529    118.96392    158.71802   -255.93808    433.22689     23.52231    22.176119    1.4241534    434.65105    -4842.643 
[...]
  491300   -93433.771   -80604.507    311.54198    20724    220520.42   -14.855236    3.7016322   -61.325325    13.057984    421.77678    23.549424    22.201681    7.1492094    428.92599   -22451.897 
  491400   -93371.545   -80542.173    311.54461    20724    220882.09    53.943664    -4.429383    352.17012   -185.90975    422.19098    23.557163    22.208977    6.9421105    429.13309   -22508.213 
  491500    -93428.94   -80549.535    312.75959    20724     220520.1    -74.38097   -102.12568    113.24987    -234.2671    422.07598    23.541059    22.193794    6.9996079    429.07559   -22509.512 
  491600   -93341.883   -80529.866    311.12314    20724    220916.23     44.87871   -270.58561    435.15128    -29.92954    421.82484    23.569206    22.220331    7.1251798    428.95002    -22519.44 
  491700   -93350.068   -80509.477    311.81702    20724    220989.92    24.794216   -320.15776    388.27453    6.2658832    421.52201    23.581603    22.232018    7.2765938    428.79861   -22539.918 
  491800   -93374.562    -80538.19    311.71456    20724    220560.95   -75.476127   -93.469318   -242.53829    109.57923    421.46681    23.560247    22.211885    7.3041974      428.771   -22524.519 
  491900   -93430.555   -80576.496    312.14407    20724    220692.01    51.155518   -4.0514729    124.66697    32.851051    421.81721    23.557455    22.209253     7.128993    428.94621   -22489.231 
  492000    -93456.21    -80582.18    312.62904    20724    220853.47   -28.209693   -193.12047    93.844956     14.64644     421.9108    23.563457    22.214911    7.0822005      428.993   -22475.852 
  492100   -93477.769   -80572.274    313.39313    20724    220589.13    67.267209       98.192   -29.979712    133.58934    421.50678    23.560635     22.21225    7.2842086    428.79099   -22500.521 
  492200   -93431.885    -80591.58    311.81006    20724    220877.59   -140.90881   -185.98011   -186.92548   -49.820848      421.843    23.566637    22.217909    7.1160988     428.9591   -22462.791 
  492300   -93304.193   -80582.197    308.93711    20724    221080.01    56.972836    124.00611    281.17401   -234.26161    421.37387    23.590555    22.240458    7.3506665    428.72453   -22478.839 
  492400   -93303.198   -80607.963    308.28723    20724    221158.07    107.23497   -21.978726   -4.5823899    348.26602    421.39063     23.59425    22.243941    7.3422841    428.73292   -22452.706 
  492500   -93307.039   -80594.095    308.71729    20724    220930.01     -47.0837    259.92876   -172.89902   -228.28084    421.35436    23.583096    22.233426    7.3604189    428.71478   -22469.751 
  492600   -93417.226   -80602.012    311.20078    20724    220767.94   -81.602538   -95.762393    83.437451   -232.48267    421.38501    23.573588    22.224462    7.3450972     428.7301   -22472.589 
  492700    -93286.83   -80610.917    307.81803    20724    221023.85  -0.30087077   -83.925294    174.62956   -91.606875    421.45143    23.585388    22.235587    7.3118838    428.76332   -22457.454 
  492800   -93376.102   -80608.746     310.0386    20724    221087.95   -41.683792      93.1822   -193.22712   -25.006461    421.70564    23.581697    22.232107    7.1847808    428.89042    -22458.56 
  492900    -93411.34   -80617.577    310.67987    20724    220722.83   -113.78656   -29.558469   -138.36412   -173.43709    421.77865    23.560177    22.211819    7.1482774    428.92692   -22460.308 
  493000   -93364.617   -80572.093    310.64979    20724    220983.21    -2.763175   -67.482991    56.733726    2.4597401    421.83287    23.572554    22.223488    7.1211638    428.95404   -22503.669 
  493100   -93313.939   -80607.331    308.56344    20724    220831.64    147.42096    183.12293    487.13289   -227.99295    422.03235    23.558899    22.210614    7.0214226    429.05378   -22481.903 
  493200   -93461.569   -80595.356    312.43922    20724    220834.79   -138.37752   -211.56762   -250.58028    47.015333    421.89705    23.562844    22.214333    7.0890746    428.98613   -22482.566 
  493300   -93428.967   -80637.809    310.61662    20724    220878.37    26.550613    116.36096    -75.20221    38.493089    422.05403    23.560787    22.212393    7.0105832    429.06462   -22448.039 
  493400    -93404.97   -80599.793    310.95702    20724    221039.79    49.969596    -22.60989    63.056537    109.46214    421.83936    23.575391    22.226162    7.1179191    428.95728   -22483.358 
  493500    -93387.98   -80606.817    310.37389    20724    220999.54   -46.886141   -332.47516    142.48504    49.331694    421.46517    23.583706    22.234001    7.3050148    428.77019   -22477.913 
  493600   -93441.594   -80599.868    311.84459    20724    221045.19   -33.751833    32.186462    18.400932   -151.84289    421.48334    23.585633    22.235818    7.2959322    428.77927     -22485.9 
  493700   -93396.154   -80584.293    311.11936    20724    220510.87    -61.52609   -183.83564    93.933105   -94.675735    421.68642    23.551437    22.203579    7.1943924    428.88081   -22523.242 
  493800   -93432.973   -80566.382     312.4484    20724    220772.65    46.515248    196.00846    101.31827   -157.78099    421.52922    23.569806    22.220897    7.2729916    428.80221   -22537.631 
  493900   -93357.977   -80608.075    309.61477    20724    220474.83    147.76711    12.274878    393.86408     37.16238    420.93053    23.570647     22.22169    7.5723361    428.50286   -22514.614 
  494000   -93321.966   -80632.313    308.15168    20724    220408.88    130.50429    44.206782    269.27015    78.035929    420.93704     23.56694    22.218194    7.5690818    428.50612   -22494.283 
  494100   -93362.608   -80603.285    309.84353    20724    220720.74    130.11176    137.48431   -114.21412    367.06509     421.0424    23.580655    22.231125    7.5163997     428.5588   -22512.205 
  494200   -93483.737   -80618.565    312.41393    20724    220938.18   -10.130194    163.40347    157.95389   -351.74795    421.39801    23.582311    22.232686    7.3385936    428.73661   -22485.801 
  494300   -93580.179   -80597.994    315.25545    20724    220672.53   -18.739116   -91.797913    159.59203   -124.01147     421.2495    23.572283    22.223232    7.4128487    428.66235   -22518.574 
  494400   -93234.729   -80568.865    307.57399    20724     221144.2    10.998584   -70.227489   -221.14452    324.36776    421.56631    23.588594    22.238609    7.2544471    428.82075   -22530.725 
  494500   -93495.341    -80573.27    313.79565    20724    220915.38   -41.219496   -84.622605   -140.43761    101.40173    421.14797    23.588093    22.238137    7.4636173    428.61158   -22537.301 
  494600   -93387.744   -80563.775     311.4134    20724    221229.12    123.27346     110.6385    299.54383   -40.361946    421.35518    23.599032     22.24845    7.3600082    428.71519    -22543.34 
  494700   -93336.584   -80554.657    310.39245    20724    221029.48   -126.26079    134.36077   -499.38156   -13.761584    421.53859    23.583249    22.233571    7.2683055    428.80689   -22549.067 
  494800   -93277.409   -80487.091    310.59619    20724    220933.04   -17.992121   -91.698688    45.433522   -7.7111961    421.70818    23.573362    22.224249    7.1835083    428.89169   -22627.411 
  494900   -93334.787   -80497.406    311.73908    20724    221097.57   -14.853801    84.934442   -137.33973    7.8438829    421.81102    23.579264    22.229813    7.1320913    428.94311    -22614.18 
  495000   -93297.601   -80467.327    311.56649    20724     220940.1   -50.578839   -42.684855    177.44833   -286.49999    421.57912    23.577348    22.228007    7.2480416    428.82716   -22648.603 
  495100   -93328.467   -80505.926    311.37871    20724    220975.16   -25.022826   -10.627937   -77.979471    13.538929    421.79312    23.573235     22.22413    7.1410403    428.93416   -22614.171 
  495200   -93251.478   -80477.658    310.19559    20724    221052.39    58.124308    301.32416   -233.61706    106.66583    421.83069    23.576305    22.227024    7.1222544    428.95295     -22643.6 
  495300   -93239.102   -80510.255    309.10346    20724    220757.32   -143.95525   -234.50881   -299.30521    101.94828    421.71116    23.563903    22.215331    7.1820194    428.89318   -22613.789 
  495400   -93378.875   -80489.829    312.99368    20724    221007.47   -67.229147   -279.00321   -60.627161    137.94293    422.09162    23.566622    22.217895    6.9917898    429.08341   -22631.906 
  495500   -93420.306   -80510.068    313.50832    20724    220935.14    48.482854    24.795644   -81.774633    202.42755    421.96152    23.566397    22.217682    7.0568405    429.01836   -22621.623 
  495600   -93213.076   -80462.544    309.63005    20724    220686.87     2.270787    95.730757    138.53977   -227.45817    421.62423    23.562572    22.214076    7.2254844    428.84972   -22678.356 
  495700   -93393.454   -80544.592    312.01788    20724    220913.03    52.357539    272.70372     -22.5129     -93.1182    422.01233    23.563799    22.215233    7.0314341    429.04377   -22594.424 
  495800   -93325.574   -80559.236     310.0139    20724    220600.63    -16.75735   -188.97328     65.89945     72.80178    421.49824    23.561487    22.213054    7.2884819    428.78672   -22587.738 
  495900   -93236.004   -80492.273    309.46491    20724    220808.52    65.894938    108.13422    155.97424   -66.423642    421.57928    23.570321    22.221382    7.2479605    428.82724   -22653.221 
  496000   -93263.594   -80463.392    310.83624    20724    221188.58   -54.379834   -220.12576   -142.37951    199.36576    421.76187     23.58549    22.235683    7.1566646    428.91854   -22662.985 
  496100   -93406.271   -80468.871    314.16789    20724    221147.06     -23.0346    74.364331   -84.377455   -59.090677    421.69024     23.58528    22.235485    7.1924817    428.88272   -22662.419 
  496200   -93281.779    -80462.18    311.30727    20724    221375.73    34.179133    350.28352   -87.248979   -160.49715     421.9956    23.588931    22.238927    7.0397999     429.0354   -22667.052 
  496300   -93176.874   -80474.633    308.45737    20724    221295.81    14.273612   -266.73925   -319.73057    629.29065    422.00594    23.584384     22.23464    7.0346284    429.04057    -22660.22 
  496400   -93242.483   -80473.221     310.0849    20724    221014.64   -17.850646   -175.02793    26.800837    94.675156     421.9317    23.571469    22.222465     7.071749    429.00345   -22671.828 
  496500   -93277.105   -80449.722    311.49628    20724    221041.17    72.102598    35.429299    145.60746    35.271033    422.21381    23.565008    22.216373    6.9306939    429.14451   -22700.998 
  496600   -93277.579    -80472.77    310.94812    20724    220696.97   -84.060156   -109.41792   -51.804249   -90.958293    422.04109    23.551471    22.203611    7.0170549    429.05815   -22685.395 
  496700    -93212.11   -80428.515    310.43295    20724    221091.61     33.08259    242.66846    10.879489   -154.30017    422.26016    23.566403    22.217688     6.907522    429.16768   -22720.572 
  496800     -93308.2   -80444.249    312.38431    20724    221296.69   -31.530238   -172.22149    155.85683    -78.22605    422.41221    23.573086    22.223989    6.8314949    429.24371   -22695.912 
  496900   -93329.923   -80479.077    312.06607    20724    221201.89   -26.923431    34.765543    47.455121   -162.99096    421.94839    23.580986    22.231437    7.0634033     429.0118   -22667.842 
  497000   -93297.948   -80461.034    311.72775    20724    221006.51   -142.53315     33.00984   -432.29091   -28.318383    421.97078    23.569945    22.221027    7.0522114    429.02299   -22690.115 
  497100   -93253.313   -80455.687    310.77368    20724    221359.53    87.698724   -15.163748    60.221814     218.0381    422.37183     23.57756    22.228207    6.8516839    429.22352   -22695.138 
  497200   -93284.266   -80439.663    311.91445    20724    221619.11   -86.990681    -127.2514     36.23448   -169.95512    422.28496    23.593806    22.243523    6.8951176    429.18008   -22693.726 
  497300   -93472.279    -80501.38    314.98139    20724    221224.77   -17.267849    124.99598    18.501468   -195.30099    422.21398    23.574787    22.225593    6.9306103    429.14459     -22654.3 
  497400   -93324.271   -80518.491    310.97169    20724    221080.18    45.358999    196.68961    83.042992    -143.6556    422.25519    23.565932    22.217244    6.9100068    429.16519   -22644.991 
  497500   -93315.609   -80533.234    310.40333    20724    221029.26    11.877147    128.31709   -252.20922    159.52357    422.63228    23.552704    22.204773    6.7214605    429.35374   -22632.193 
  497600   -93334.044   -80532.279    310.87418    20724    221136.73   -4.0678244   -153.56168    147.67246   -6.3142599    423.27027    23.540667    22.193426    6.4024626    429.67274   -22630.369 
  497700   -93258.057   -80505.272    309.68478    20724    221152.65   -184.72632   -461.69269    237.55216   -330.03844     423.2502    23.542073    22.194751    6.4125006     429.6627   -22649.739 
  497800   -93316.386    -80529.24    310.51919    20724    221156.74   -55.032811   -164.82766   -71.222592     70.95182     423.2688    23.541773    22.194468    6.4032022      429.672   -22634.842 
  497900    -93313.94   -80532.705    310.37563    20724    221253.34    71.563446    211.75332   -62.817357    65.754374    423.59008    23.537983    22.190895    6.2425604    429.83264   -22634.835 
  498000   -93318.315   -80548.293    310.10335    20724    221492.76    90.104458   -137.36307    127.35309    280.32336    423.72523    23.546958    22.199357    6.1749863    429.90021   -22612.573 
  498100   -93396.051    -80555.54     311.8151    20724    221327.86   -149.21211    -336.8166    14.004852   -124.82457    423.39716    23.547309    22.199687    6.3390177    429.73618   -22603.265 
  498200   -93351.711    -80596.45    309.74488    20724    221130.65    6.2065357    25.835381    47.172073   -54.387847    423.15929    23.543431    22.196031    6.4579549    429.61725   -22578.569 
  498300   -93382.128   -80626.428    309.75554    20724     221208.4   -1.4788096    103.00889   -345.20444    237.75912    423.15748    23.547619     22.19998    6.4588576    429.61634   -22547.141 
  498400    -93343.47   -80629.061    308.75285    20724    220884.92    98.626746    99.933708   -95.099742    291.04627    423.23977    23.528109    22.181585     6.417717    429.65748   -22562.596 
  498500    -93399.74   -80609.375    310.59734    20724    221311.95   -93.583444   -211.07339   -84.705756    15.028816    423.47183    23.544387    22.196932    6.3016831    429.77352   -22560.245 
  498600   -93208.608   -80586.824    306.50357    20724    221303.67    29.135217   -22.179065   -164.53302    274.11774    422.89623    23.559964    22.211618    6.5894829    429.48572   -22587.629 
  498700   -93378.442   -80544.876    311.64643    20724    220792.22   -96.414595   -197.86271    94.914536   -186.29561    422.71062    23.537889    22.190807    6.6822898    429.39291   -22648.811 
  498800   -93282.502     -80567.2    308.77454    20724    220750.05    34.300144   -35.638695   -174.86088    313.40001    422.44326    23.543088    22.195708    6.8159714    429.25923    -22635.12 
  498900   -93461.271   -80570.746    313.02961    20724    220879.82   -63.593678   -203.83947    -71.17906    84.237499    422.46186    23.549489    22.201742    6.8066719    429.26853   -22627.423 
  499000   -93309.397   -80547.716    309.90081    20724    220759.22     24.85639    29.317028    30.139509    15.112633    422.75702    23.534838     22.18793    6.6590879    429.41611   -22657.508 
  499100   -93223.479   -80512.649    308.66594    20724    220480.64   -41.133341    268.88788    139.50378   -531.79168    422.78237    23.519279    22.173261    6.6464151    429.42878   -22703.352 
  499200   -93162.684   -80541.785    306.48208    20724    220575.93    75.583136    18.878683    133.29313    74.577591    422.37756    23.535632    22.188678     6.848822    429.22638    -22674.15 
  499300   -93275.078    -80544.83    309.13749    20724    220888.88    163.32929    320.64519    50.800862    118.54181    422.86329    23.538791    22.191657    6.6059536    429.46925   -22667.968 
  499400   -93322.882   -80562.162    309.87746    20724    220982.22   -78.824386   -71.065382   -233.33116    67.923383    422.76262    23.546567    22.198987    6.6562911    429.41891   -22639.154 
  499500   -93306.929   -80534.683    310.15736    20724    220881.85   -105.93373   -272.30529    81.387553   -126.88344    422.59948    23.545762    22.198229    6.7378587    429.33734   -22668.264 
  499600   -93393.817   -80617.084    310.26632    20724    220694.43    42.931462    113.23291    149.33557    -133.7741    422.08446    23.550125    22.202342      6.99537    429.07983   -22602.787 
  499700    -93376.63   -80552.754    311.41113    20724    220919.69    119.66494   -10.931388    317.08201    52.844202     421.9084    23.567056    22.218304    7.0834003     428.9918   -22664.983 
  499800   -93362.755   -80558.016     310.9464    20724    220798.26    -67.80937     105.9267   -217.23979    -92.11502    421.58808    23.569528    22.220634    7.2435616    428.83164   -22656.928 
  499900   -93338.486   -80560.069    310.30721    20724    220810.27     80.50188    94.338298    152.19532   -5.0279757    421.36276     23.57647    22.227179    7.3562218    428.71898   -22662.291 
  500000   -93299.374   -80572.628    309.05244    20724     220426.4   -13.599635   -203.76692    112.14758    50.820437    421.10088    23.563291    22.214754    7.4871584    428.58804   -22661.201 
Loop time of 52489.5 on 32 procs for 500000 steps with 20724 atoms

Performance: 1.646 ns/day, 14.580 hours/ns, 9.526 timesteps/s
97.2% CPU use with 32 MPI tasks x no OpenMP threads

MPI task timing breakdown:
Section |  min time  |  avg time  |  max time  |%varavg| %total
---------------------------------------------------------------
Pair    | 6423.2     | 9128.6     | 12953      |2429.6 | 17.39
Bond    | 0.34616    | 0.48544    | 0.58788    |   7.9 |  0.00
Kspace  | 8457.1     | 12298      | 15021      |2107.3 | 23.43
Neigh   | 8403       | 10629      | 12745      |1518.6 | 20.25
Comm    | 375.71     | 3777.8     | 7971       |4287.9 |  7.20
Output  | 3.0881     | 47.122     | 74.732     | 356.9 |  0.09
Modify  | 13134      | 16568      | 22071      |2373.7 | 31.56
Other   |            | 41.12      |            |       |  0.08

Nlocal:    647.625 ave 702 max 598 min
Histogram: 2 3 5 7 1 3 3 1 3 4
Nghost:    7424.09 ave 7883 max 6984 min
Histogram: 3 5 2 4 5 1 0 5 4 3
Neighs:    238917 ave 274970 max 211074 min
Histogram: 3 9 6 0 1 1 4 2 1 5
FullNghs:  477833 ave 551595 max 423615 min
Histogram: 2 10 6 0 1 2 3 2 2 4

Total # of neighbors = 15290667
Ave neighs/atom = 737.824
Ave special neighs/atom = 2
Neighbor list builds = 500000
Dangerous builds not checked
write_data production.R1
PPPM initialization ...
  extracting TIP4P info from pair style
WARNING: Using 12-bit tables for long-range coulomb (../kspace.cpp:316)
  G vector (1/distance) = 0.34599
  grid = 400 48 48
  stencil order = 5
  estimated absolute RMS force accuracy = 0.000400053
  estimated relative force accuracy = 1.20475e-06
  using double precision FFTs
  3d grid and FFT values/proc = 67260 38400
write_restart restartproduction.R1
PPPM initialization ...
  extracting TIP4P info from pair style
WARNING: Using 12-bit tables for long-range coulomb (../kspace.cpp:316)
  G vector (1/distance) = 0.34599
  grid = 400 48 48
  stencil order = 5
  estimated absolute RMS force accuracy = 0.000400053
  estimated relative force accuracy = 1.20475e-06
  using double precision FFTs
  3d grid and FFT values/proc = 67260 38400
Total wall time: 14:34:50
