LAMMPS (30 Jul 2016)
# Sets up LAMMPS simulation for transient melting of ice: TIP4P/Ice
# Ensure cold thermostats do not move
# Thinbox: 16x1x1
# Defects
# Order param l=2

#### setting MD parameters ####
units real
boundary p p p
atom_style full

# read ice box in restart file
### read the equilibrated NPT restart file

read_restart restart.state
  orthogonal box = (0.412041 0.0222343 0.0209618) to (435.663 23.509 22.1635)
  32 by 1 by 1 MPI processor grid
  20736 atoms
  13824 bonds
  6912 angles
  2 = max # of 1-2 neighbors
  1 = max # of 1-3 neighbors
  1 = max # of 1-4 neighbors
  2 = max # of special neighbors


#### force field definition ####
pair_style      lj/cut/tip4p/long 2 1 1 1 0.1577 10.0
pair_modify	tail yes

kspace_style	pppm/tip4p 1.0e-6

bond_style	harmonic
angle_style	harmonic
dihedral_style	none
improper_style	none

bond_coeff	1 450.0 0.9572
angle_coeff	1 55.0 104.52


# reset pair coeff
pair_coeff	* * 0.0 0.0

#OO
pair_coeff	2 2 0.21085 3.1668
#OH
pair_coeff	* 1 0.0000 0.0000

neighbor        2.0 bin
neigh_modify    every 1 delay 1 check no

timestep	2.0
fix		constraints all shake 0.000001 20 0 b 1 a 1
  0 = # of size 2 clusters
  0 = # of size 3 clusters
  0 = # of size 4 clusters
  6912 = # of frozen angles

group water type 1 2
20736 atoms in group water

#*********** SIMULATION PARAMETER TO ADJUST ****************
#Box dimensions
variable lx equal lx
variable ly equal ly
variable lz equal lz

### Temperature of the hot and cold regions ####
variable thi equal 375
variable tlo equal 215
variable runpressure equal 0.986923


# Configuration equilibrated in density and temperature

# Define dx here

variable lx equal lx
variable ly equal ly
variable lz equal lz

variable xlo equal xlo
variable xhi equal xhi

variable boxcentre equal ${xlo}+(${xhi}-${xlo})/2
variable boxcentre equal 0.41204051808179+(${xhi}-${xlo})/2
variable boxcentre equal 0.41204051808179+(435.663159481919-${xlo})/2
variable boxcentre equal 0.41204051808179+(435.663159481919-0.41204051808179)/2

variable dx equal 2.0

#### ADD IN DEFECTS AT THE CENTRE OF THE HOT THERMOSTAT #####
variable y1 equal ${ly}/2.0
variable y1 equal 23.4867314870506/2.0
variable z1 equal ${lz}/2.0
variable z1 equal 22.142576437856/2.0

region kill1 sphere ${boxcentre} ${y1} ${z1} 3
region kill1 sphere 218.0376 ${y1} ${z1} 3
region kill1 sphere 218.0376 11.7433657435253 ${z1} 3
region kill1 sphere 218.0376 11.7433657435253 11.071288218928 3
delete_atoms region kill1 compress no bond yes mol yes
Deleted 12 atoms, new total = 20724
Deleted 8 bonds, new total = 13816
Deleted 4 angles, new total = 6908
############


variable thip equal ${thi}*2.0/3.0
variable thip equal 375*2.0/3.0
variable tlop equal ${tlo}*2.0/3.0
variable tlop equal 215*2.0/3.0
variable hbl equal ${boxcentre}-${dx}
variable hbl equal 218.0376-${dx}
variable hbl equal 218.0376-2
variable hbh equal ${boxcentre}+${dx}
variable hbh equal 218.0376+${dx}
variable hbh equal 218.0376+2

#***************************************************
## EQUILIBRATION PERIOD - to reach the steady state ###
#run 0

#reset the timestep to start your production run
reset_timestep 0

# define a group to perform averages
#group s1 type 1
###*** SYSTEM THERMOSTATTING: HOT and COLD regions ***###

fix NVE all nve
fix PRESS all press/berendsen aniso ${runpressure} ${runpressure} 500000 couple yz
fix PRESS all press/berendsen aniso 0.986923 ${runpressure} 500000 couple yz
fix PRESS all press/berendsen aniso 0.986923 0.986923 500000 couple yz


### Apply THERMOSTATS ###

#set up the "hot region" in the middle of the box
region hot block ${hbl} ${hbh} 0 ${ly} 0 ${lz} units box
region hot block 216.0376 ${hbh} 0 ${ly} 0 ${lz} units box
region hot block 216.0376 220.0376 0 ${ly} 0 ${lz} units box
region hot block 216.0376 220.0376 0 23.4867314870506 0 ${lz} units box
region hot block 216.0376 220.0376 0 23.4867314870506 0 22.142576437856 units box


#set up the "cold region" at the left end of the box
#region cold block ${cbl} ${cbh} 0 ${ly} 0 ${lz} units box

#set up the "cold region" at the right end of the box
#region cold2 block ${h2bl} ${xhi} 0 ${ly} 0 ${lz} units box


#Cold regions  unification
#region cold union 2 cold1 cold2 units box

#Create group of cold molecules
####group cool_ice region cold
####group cool_ice include molecule

####compute cold_temp cool_ice temp
####fix cold_rescale water temp/rescale 1 ${tlo} ${tlo} 0.0001 1.0
####fix_modify cold_rescale temp cold_temp

#this calculates the temperature using only the atoms in the "hot region"
#compute hot_temp all temp/region hot

# calculate the temperature using only WATER in the "hot region"
compute hot_temp water temp/region hot

#this calculates the temperature using only WATER in the "cold region"
#compute cold_temp water temp/region cold


#set up a basic velocity rescale for the hot region WATER with thip
fix hot_rescale water temp/rescale 1 ${thip} ${thip} 1.0 1.0
fix hot_rescale water temp/rescale 1 250 ${thip} 1.0 1.0
fix hot_rescale water temp/rescale 1 250 250 1.0 1.0
#change the thermostat to only act on the "hot region"
#this is done by passing it the "hot temp" compute that we defined above
fix_modify hot_rescale temp hot_temp

#set up a basic velocity rescale for the cold region
#fix cold_rescale water temp/rescale 1 ${tlop} ${tlop} 1.0 1.0
#change the thermostat to only act on the "cold region"
#this is done by passing it the "cold temp" compute that we defined above
#fix_modify cold_rescale temp cold_temp

### Ensure MOMENTUM CONSERVATION ###

#ensure that linear momentum is conserved despite the "thermostatting" by velocity rescaling
fix cons_mom all momentum 1 linear 1 1 1


thermo 100
thermo_style custom step pe etotal temp atoms vol press pxx pyy pzz lx ly lz xlo xhi  f_hot_rescale

group ox type 2
6908 atoms in group ox
group hy type 1
13816 atoms in group hy
compute KE all ke/atom
variable TEMP atom c_KE*4186.8/(1.3806488*6.02214129)

compute cc1 all chunk/atom bin/1d x center 2 units box
#fix TPROFILE all ave/chunk 1 500 500 cc1 v_TEMP density/number file temp.dat
fix TPROFILEox ox ave/chunk 1 500 500 cc1 v_TEMP density/number file temp-ox.dat
fix TPROFILEhy hy ave/chunk 1 500 500 cc1 v_TEMP density/number file temp-hy.dat

compute orderparam ox orientorder/atom degrees 1 2 nnn 4 cutoff 3.5
compute cc2 ox chunk/atom bin/1d x center 2 units box
#fix ORDERPARAM all ave/chunk 1 500 500 cc2 c_orderparam[1] file order-param.dat
fix ORDERPARAM all ave/chunk 1 500 500 cc2 c_orderparam[1] file order-param.dat

restart 50000 config.restart

run 500000
PPPM initialization ...
  extracting TIP4P info from pair style
WARNING: Using 12-bit tables for long-range coulomb (../kspace.cpp:316)
  G vector (1/distance) = 0.345595
  grid = 405 48 48
  stencil order = 5
  estimated absolute RMS force accuracy = 0.000406075
  estimated relative force accuracy = 1.22288e-06
  using double precision FFTs
  3d grid and FFT values/proc = 67260 38880
Neighbor list info ...
  2 neighbor list requests
  update every 1 steps, delay 1 steps, check no
  max neighbors/atom: 2000, page size: 100000
  master list distance cutoff = 12.3154
  ghost atom cutoff = 12.3154
  binsize = 6.1577 -> bins = 71 4 4
Memory usage per processor = 12.7748 Mbytes
Step PotEng TotEng Temp Atoms Volume Press Pxx Pyy Pzz Lx Ly Lz Xlo Xhi hot_resc 
       0   -103762.85   -94916.347    214.82586    20724    226355.28    85.999382    249.61611    211.25801   -202.87598    435.25112    23.486731    22.142576   0.41204052    435.66316            0 
     100   -103638.44   -94655.505     218.1388    20724    226238.66    12.806695   -64.608746    159.20837   -56.179544    435.11101    23.484461    22.140435   0.48209647     435.5931   -262.91038 
     200   -103569.46   -94602.803    217.74357    20724    226324.43    45.706861   -45.289853    205.22404   -22.813608    435.18756    23.486846    22.142684   0.44381918    435.63138   -314.23542 
     300   -103603.84   -94568.563    219.40989    20724    226311.97    68.064163    3.9761858    191.51735    8.6989488    435.27996    23.483706    22.139724    0.3976186    435.67758   -353.63111 
     400   -103528.48   -94489.239     219.5063    20724    226417.28    68.983696   -24.939614    299.60137   -67.710671    435.32898    23.487847    22.143628   0.37310932    435.70209   -430.62168 
     500   -103557.47   -94466.508    220.76204    20724    226139.82    11.850214   -9.8999982    175.78276   -130.33212     435.1359    23.478659    22.134965   0.46965131    435.60555   -456.87195 
     600   -103512.47   -94402.315    221.22827    20724    226415.01   -27.508534   -275.69494   -52.033907    245.20324    435.07773     23.49451     22.14991    0.4987363    435.57646   -513.42023 
     700   -103396.55   -94336.294    220.01647    20724    226235.77   -5.1622932   -50.308321    67.777006   -32.955564    435.13439     23.48368    22.139699   0.47040733    435.60479   -584.69618 
     800   -103394.18   -94295.511     220.9494    20724    226273.49    31.931726   -25.281516    215.54572   -94.469022    435.10499    23.486431    22.142293   0.48510742    435.59009   -628.28481 
     900   -103456.37   -94284.747    222.72093    20724    226411.38   -36.079084    -82.98321   -100.90067    75.646632    435.21544    23.490604    22.146228    0.4298775    435.64532   -632.49239 
    1000      -103404   -94266.338    221.89609    20724    226504.19    114.67947    152.59619    66.215919     125.2263    435.30528    23.492994    22.148481   0.38495921    435.69024   -656.55214 
    1100   -103351.92   -94213.427    221.91648    20724    226367.26   -63.875364   -174.65608    49.616553   -66.586561    435.06051    23.492498    22.148013   0.50734638    435.56785   -705.30216 
    1200   -103419.13    -94190.64    224.10184    20724    226501.66    32.713625     101.4739    133.60811   -136.94114    435.31025    23.492729     22.14823   0.38247258    435.69273   -731.30885 
    1300    -103436.9   -94179.607    224.80132    20724    226576.46    18.163573    71.891317   -0.3407821   -17.059817    435.28709    23.497233    22.152477   0.39405305    435.68115   -740.69347 
    1400   -103317.19   -94151.264    222.58247    20724    226452.66   -18.985217   -81.047761    132.97251   -108.88039     435.1736    23.493875    22.149311   0.45079756     435.6244   -770.34991 
    1500   -103343.34   -94132.697    223.66842    20724    226610.79   -41.019371   -52.099026    -64.62852   -6.3305672    435.45528    23.494474    22.149876    0.3099623    435.76524   -784.01272 
    1600   -103285.93   -94102.802     223.0002    20724    226444.58   -26.243483   -61.323624    1.1275213   -18.534348    435.24569    23.491511    22.147082   0.41475702    435.66044   -819.04676 
    1700   -103340.18   -94095.346     224.4987    20724    226498.26    74.242317    73.191645    54.666345    94.868962    435.24355    23.494352    22.149761   0.41582495    435.65938   -831.75702 
    1800   -103173.35   -94034.811    221.91749    20724    226213.05   -41.081046    170.30359   -359.31031    65.763577    435.23957    23.479663    22.135912   0.41781396    435.65739   -892.15016 
    1900   -103208.17   -93970.947    224.31399    20724    226548.48    39.392554   -36.428001   -16.683282    171.28895    435.35868     23.49385    22.149287   0.35825777    435.71694   -953.90363 
    2000   -103255.62   -93971.523    225.45219    20724    226406.15   -56.039259    102.67252    -245.9008   -24.889497    435.23473    23.489813    22.145481   0.42023473    435.65497   -953.36465 
    2100   -103180.71   -93959.955    223.91404    20724    226425.01    40.335521   0.42572771    -61.26196     181.8428    435.43885    23.485285    22.141212   0.31817326    435.75703   -969.01402 
    2200   -103186.13   -93925.249    224.88834    20724    226368.26   -65.452111   -70.230629   -100.28156   -25.844141    435.28157    23.486583    22.142437    0.3968151    435.67838   -1000.5988 
    2300   -103238.43    -93936.36    225.88874    20724     226471.7    30.117151   -225.41752    250.10737    65.661595    435.31403    23.491073    22.146669   0.38058712    435.69461    -993.2291 
    2400    -103193.8   -93891.827    225.88634    20724    226447.28   -61.392101   -56.287889   -71.887398   -56.001016    435.25138    23.491497    22.147069    0.4119124    435.66329   -1035.3368 
    2500   -103168.77   -93883.002    225.49269    20724    226558.73    35.531002   -6.5875376    200.64413    -87.46359    435.27862    23.496542    22.151825   0.39829064    435.67691   -1047.7621 
    2600   -103200.91   -93859.082    226.85405    20724    226532.56     5.320674   -79.635117   -51.857821    147.45496    435.31537    23.494193    22.149611   0.37991418    435.69529   -1071.4834 
    2700   -103143.81   -93853.557    225.60171    20724    226585.08   -69.198471    1.2834862   -244.31013    35.431229    435.29677    23.497418    22.152652   0.38921619    435.68598   -1071.8576 
    2800   -103148.24   -93822.025    226.47501    20724    226493.87    29.876087    42.295994    -108.7616    156.09386    435.12758    23.497255    22.152498   0.47381095    435.60139   -1110.9959 
    2900   -103109.91   -93838.647    225.14048    20724    226570.02    29.853003    26.469871   -188.90999    251.99912    435.46903     23.49199    22.147534   0.30308536    435.77211   -1093.7951 
    3000   -103149.06   -93831.933    226.25421    20724    226429.91    61.730004    91.124002    131.14209    -37.07608    434.97487    23.498061    22.153258   0.55016689    435.52503   -1109.6833 
    3100   -103060.12   -93795.585    224.97723    20724    226510.73    -17.61406    34.179388   -85.445087   -1.5764792    435.23359    23.495268    22.150624   0.42080458     435.6544   -1136.9482 
    3200   -103111.46    -93767.39    226.90858    20724    226537.84    66.675305    159.19197    49.570982   -8.7370394     435.3444    23.493683     22.14913   0.36540128     435.7098   -1170.5655 
    3300   -103110.86   -93784.338    226.48252    20724    226523.96    4.3581274   -102.07773    276.89859   -161.74648    435.40972    23.491202    22.146791   0.33274189    435.74246   -1152.6502 
    3400    -103111.4   -93776.428    226.68772    20724    226591.43    27.353267   -7.9399817   -3.0510969     93.05088    435.16481     23.50131    22.156321   0.45519293    435.62001   -1160.7607 
    3500   -103105.04   -93742.045     227.3681    20724    226682.96    -46.17001    65.477286   -81.074269   -122.91305    435.40748    23.499505    22.154619   0.33385864    435.74134    -1189.603 
    3600   -103137.16   -93699.952    229.17036    20724    226636.98   -52.261949   -80.693488   -228.09319    152.00083    435.38724    23.497668    22.152887   0.34398171    435.73122   -1234.7424 
    3700      -103037   -93618.144    228.72461    20724    226613.88   -1.4141274    -27.66841   -53.987308    77.413336    435.27285    23.499557    22.154668   0.40117491    435.67403   -1317.5754 
    3800    -103114.5   -93668.012    229.39571    20724    226649.47   -102.09263    108.82194    42.707004   -457.80682    435.32213    23.500072    22.155154   0.37653277    435.69867   -1263.3331 
    3900   -103053.06    -93629.77    228.83229    20724    226523.84   0.98446922    225.31289    -318.7469    96.387418    435.31876    23.493649    22.149098   0.37822158    435.69698   -1311.4131 
    4000      -102997   -93644.923     227.1031    20724    226604.53   -50.942013   -292.80304    63.960612    76.016393    435.28585    23.498721     22.15388   0.39467292    435.68053    -1292.708 
    4100   -103077.53   -93623.576      229.577    20724    226537.42   -54.079021    -101.1793    4.6569879   -65.714757    435.21523    23.497148    22.152396   0.42998429    435.64522   -1317.0309 
    4200   -103046.85   -93627.985    228.72498    20724    226727.29    1.1868533    41.183643    170.25031    -207.8734    435.48357    23.499749    22.154849   0.29581301    435.77939   -1311.0948 
    4300   -103005.73   -93616.987    227.99337    20724    226551.42   -6.7729667   -38.267861     202.2774   -184.32844    435.22031    23.497737    22.152952   0.42744405    435.64776   -1327.3096 
    4400   -103040.78   -93629.196    228.54812    20724    226657.65     22.54519    53.914892    13.204653   0.51602396     435.4045    23.498273    22.153458    0.3353505    435.73985   -1316.8354 
    4500   -102995.94   -93616.265    227.77316    20724     226758.1   -6.1766452    9.0380263   -162.58169    135.01372    435.27743     23.50691      22.1616   0.39888473    435.67632   -1326.3837 
    4600   -102942.67   -93553.058    228.01447    20724    226646.95    3.0425241   -134.54669   -206.76107    350.43533     435.3515    23.499149    22.154283   0.36184879    435.71335   -1390.9502 
    4700   -102947.79   -93544.577    228.34472    20724    226711.89    3.7833674   -73.367403   -107.64501    192.36251    435.49221    23.498718    22.153877   0.29149339    435.78371   -1399.2663 
    4800   -103013.62   -93526.262    230.38809    20724    226660.04   -53.194988   -163.21661   -370.13896     373.7706    435.35426    23.499753    22.154853   0.36046757    435.71473   -1418.8316 
    4900   -102854.38   -93544.333    226.08224    20724    226702.39    2.3748618   -137.81104   -51.304374       196.24    435.31483    23.503013    22.157926   0.38018365    435.69502   -1399.6301 
    5000   -103075.74   -93549.512     231.3321    20724    226679.37    28.528686   -58.147337    129.20746    14.525933    435.30842    23.501992    22.156964   0.38339068    435.69181   -1401.6691 
    5100   -102949.72   -93520.986    228.96446    20724    226714.84    18.900942    137.09934   -130.14445    49.747928    435.37423    23.502055    22.157023   0.35048594    435.72471   -1429.1986 
    5200   -102924.74   -93513.277    228.54499    20724    226720.16    22.647373    83.155134   -240.40211    225.18909    435.38711    23.501983    22.156955   0.34404606    435.73115   -1436.4668 
    5300   -102875.59   -93471.572    228.36437    20724    226759.07   -74.209175    -142.1636    81.110148   -161.57407    435.36086    23.504708    22.159524   0.35716755    435.71803   -1473.2598 
    5400   -102868.85   -93464.422    228.37419    20724    226710.08   0.35930291    40.074611    259.50792   -298.50462    435.63266    23.494836    22.150217   0.22126994    435.85393   -1486.2839 
    5500   -102894.24    -93433.48    229.74233    20724    226837.44   -22.287707    22.947076   -21.260459   -68.549739    435.36789     23.50858    22.163174   0.35365573    435.72154   -1514.0021 
    5600   -102967.35   -93450.287    231.10942    20724    226808.76   -56.136532   -69.702147   -24.321636   -74.385812    435.35201    23.507522    22.162177   0.36159357    435.71361   -1499.4152 
    5700   -102862.06   -93404.533    229.66383    20724    226666.86    32.671853    201.93303   -264.79862    160.88115     435.3095    23.501315    22.156325   0.38285111    435.69235   -1551.6241 
    5800   -102900.95    -93418.16    230.27715    20724    226666.88   -77.094811   -259.26622   -162.07145    190.05324    435.36996    23.499684    22.154788    0.3526196    435.72258   -1532.8167 
    5900   -102913.44   -93457.591    229.62302    20724    226772.71   -50.943718   -63.361987   -84.466635   -5.0025327    435.49462    23.501805    22.156787   0.29028929    435.78491   -1493.0287 
    6000   -102888.33   -93386.949     230.7286    20724    226651.64    89.004583    335.25625   -273.99151    205.74901    435.30206    23.500726     22.15577   0.38657054    435.68863    -1575.135 
    6100   -102888.28   -93419.588    229.93495    20724    226647.32   -5.7590546   -132.14245    122.43014   -7.5648479    435.39473    23.498001    22.153201   0.34023539    435.73496   -1540.0471 
    6200   -102919.33   -93362.825    232.06737    20724    226732.61  -0.85770373    123.84338    6.7964739   -133.21297    435.38892    23.502579    22.157517   0.34314195    435.73206   -1596.4629 
    6300   -102901.42   -93376.962    231.28898    20724    226635.92   -74.803848   -33.928731   -131.74308   -58.739736    435.30361     23.49987    22.154963   0.38579543     435.6894    -1582.072 
    6400   -102849.33   -93384.994    229.82904    20724    226656.35    20.859691    44.009906    119.69948   -101.13032    435.36784    23.499195    22.154327   0.35367764    435.72152   -1577.8375 
    6500   -102863.03   -93390.421    230.02992    20724    226709.64    60.606306   -11.538866      85.6101    107.74769    435.38751    23.501427    22.156431   0.34384676    435.73135   -1573.8089 
    6600   -102918.15   -93346.052     232.4459    20724    226740.16     32.01652    -9.415342   -24.714767    130.17967    435.26296    23.506371    22.161092   0.40611932    435.66908   -1617.5294 
    6700   -102767.43    -93309.79    229.66649    20724    226619.66    30.268156   -111.71851    -35.12771    237.65068    435.23349     23.50092    22.155953   0.42085429    435.65435   -1655.5388 
    6800   -102858.97   -93322.597    231.57829    20724    226595.72    18.040005    76.678347   -88.600963    66.042632    435.54103     23.49138    22.146959   0.26708742    435.80811   -1646.0788 
    6900   -102899.59   -93375.129    231.28908    20724    226657.22   -41.932881   -295.25299   -89.218949     258.6733    435.50673    23.495493    22.150836    0.2842349    435.79097   -1590.3981 
    7000   -102853.33    -93341.27    230.98788    20724    226595.07     28.63096   -134.34733    113.55346    106.68674    435.18771     23.50088    22.155916   0.44374513    435.63145   -1631.8544 
    7100   -102838.51   -93296.097    231.72516    20724     226516.7   -59.762174    28.456822   -244.43252    36.689177    435.15456    23.497711    22.152928   0.46031752    435.61488   -1672.8524 
    7200   -102799.05   -93296.674    230.75281    20724    226652.42    30.084906   -2.0836457    151.22683   -58.888467    435.47018     23.49623    22.151531   0.30251074    435.77269    -1673.574 
    7300   -102895.58   -93266.752    233.82342    20724    226743.49    -39.10543   -91.334962   -3.6583572   -22.322972    435.34571    23.504309    22.159148   0.36474335    435.71046   -1700.5093 
    7400   -102875.31   -93297.923     232.5744    20724    226625.21   -107.25098   -18.805953     62.16658   -365.11355    435.09992    23.504814    22.159624   0.48763943    435.58756   -1669.7689 
    7500   -102845.82   -93273.109    232.46092    20724    226602.66    -68.89791   -83.042554   -134.15865     10.50747    435.30957    23.497984    22.153185   0.38281361    435.69239     -1697.49 
    7600   -102851.56    -93243.83    233.31125    20724    226566.71    6.6965235   -72.144834    163.36505   -71.130643    435.44105    23.492573    22.148083   0.31707266    435.75813   -1732.8272 
    7700   -102763.48   -93226.065    231.60372    20724    226751.01    14.988158   -55.998611   -158.03186    258.99494    435.29758    23.505999    22.160741   0.38881061    435.68639   -1748.1874 
    7800   -102806.83   -93193.019     233.4588    20724    226763.75      25.0387    51.842391   -96.268836    119.54254    435.40769    23.503686    22.158561   0.33375256    435.74145   -1782.3168 
    7900   -102797.22   -93176.823     233.6188    20724    226709.05   -55.620053    59.919647   -161.49812   -65.281687    435.43508    23.500113    22.155192   0.32006104    435.75514   -1796.9877 
    8000   -102834.07   -93207.321    233.77309    20724     226657.4   -27.816626  -0.42236361   -87.607429    4.5799134    435.66861    23.491137     22.14673    0.2032936    435.87191   -1770.9285 
    8100   -102781.42   -93194.938    232.79528    20724    226801.89    28.859265    233.40542   -46.086177   -100.74144    435.64504    23.499259    22.154387   0.21507982    435.86012   -1781.6647 
    8200   -102777.47   -93184.858    232.94415    20724    226673.13   -2.5161637   -70.868518    21.799671    41.520356    435.24141    23.503478    22.158364   0.41689536     435.6583   -1796.4797 
    8300   -102662.03   -93166.619    230.58378    20724    226875.84    13.929035    199.72121    264.59596   -422.53006    435.51325    23.506645     22.16135    0.2809733    435.79423   -1807.0402 
    8400   -102707.06   -93146.248    232.17195    20724    226651.28    17.442436    253.74685    -110.4331   -90.986442     435.2783    23.501349    22.156358   0.39844846    435.67675   -1836.8257 
    8500   -102730.05   -93172.873    232.08368    20724    226849.71    71.120545    123.85624    170.06516   -80.559766    435.65336    23.501512    22.156511   0.21091957    435.86428   -1809.3733 
    8600   -102687.57    -93116.21    232.42798    20724    226659.43   -16.486245    79.840734   -134.50186    5.2023857    435.46257    23.496799    22.152067   0.30631308    435.76889   -1869.0442 
    8700   -102701.96   -93119.794    232.69052    20724    226850.14    63.990398    207.71558   -213.04248     197.2981    435.46404    23.506642    22.161347   0.30557904    435.76962   -1866.1928 
    8800   -102740.17   -93098.413    234.13741    20724    226768.48    62.946487   -59.032675    25.639113    222.23302    435.35424    23.505374    22.160152   0.36047751    435.71472    -1890.189 
    8900   -102722.75   -93067.771    234.45857    20724     227117.2    65.020921    80.920943     246.4568   -132.31497    435.77092    23.512191    22.166579   0.15213811    435.92306   -1915.5923 
    9000   -102640.63   -93036.683    233.21922    20724    226788.19    13.196381   -74.836815   -170.94871    285.37467    435.33457    23.506927    22.161616   0.37031352    435.70489   -1954.7743 
    9100   -102679.47   -93064.975    233.47545    20724    227030.69   -8.6365202    -26.40481   -197.03109    197.52634    435.72572    23.508932    22.163507   0.17474248    435.90046    -1917.612 
    9200   -102638.71    -93037.17    233.16092    20724    226981.63    69.782026    186.48365   -59.101826    81.964251    435.65861    23.508202    22.162818   0.20829357    435.86691   -1952.5318 
    9300   -102821.26   -93052.866    237.21277    20724    226804.99   -59.882656   -40.538339   -12.128997   -126.98063    435.53765    23.502316    22.157269   0.26877648    435.80642     -1937.85 
    9400   -102717.83   -93027.009    235.32895    20724    226970.49   -22.401742    29.196147     44.24223    -140.6436    435.65303    23.507776    22.162417   0.21108337    435.86412   -1960.9757 
    9500   -102638.42   -93010.212    233.80849    20724    226981.06    7.4431082   -83.094186     71.90842     33.51509     435.7269     23.50633    22.161054    0.1741507    435.90105   -1979.6708 
    9600   -102602.01   -92978.319     233.6988    20724    227007.24    4.6715487    19.127893    257.81314   -262.92638    435.66458    23.509367    22.163917   0.20531002    435.86989   -2010.3739 
    9700   -102744.67   -92960.774     237.5892    20724     226796.6   -49.567217   -268.09478    127.83788   -8.4447472    435.43154    23.504745    22.159559   0.32183042    435.75337   -2034.0806 
    9800   -102624.55   -92967.027    234.52034    20724    226838.88    28.898446    88.889814   -140.29331    138.09883    435.75893    23.498104    22.153298   0.15813458    435.91707   -2029.9414 
    9900   -102698.32    -92939.54    236.97923    20724    226915.31    -55.14295    68.342357   -204.73396    -29.03725    435.57734    23.506961    22.161648   0.24893231    435.82627   -2054.3248 
   10000   -102527.81   -92923.083    233.23832    20724    226738.39     38.27801    125.87838    202.56008   -213.60442    435.37447    23.503269    22.158167   0.35036595    435.72483   -2080.5525 
   10100   -102665.38   -92898.763    237.16964    20724    227055.95     -48.9376    -127.1918  -0.91745156   -18.703547    435.60122    23.513599    22.167907   0.23698876    435.83821   -2095.2481 
   10200   -102567.14   -92847.424    236.03055    20724     226929.4    13.508021   -10.436709    165.33476   -114.37399    435.58581    23.507462     22.16212   0.24469481    435.83051   -2150.5748 
   10300   -102533.27   -92871.246    234.62957    20724    226906.36    112.94764    96.928716    184.50931    57.404879    435.54169    23.507459    22.162118   0.26675299    435.80845    -2135.976 
   10400   -102616.05   -92877.911    236.47803    20724    226905.29   -109.92332    69.351931   -52.153412   -346.96849    435.48204    23.509013    22.163583   0.29658064    435.77862   -2119.5782 
   10500   -102682.67    -92898.07    237.60637    20724    226851.74   -61.462506     -104.659    53.938891   -133.66741    435.57855    23.503635    22.158512   0.24832667    435.82687    -2104.255 
   10600   -102512.58   -92839.479    234.89869    20724    226822.44   -51.140753   -223.14163    20.100947    49.618423    435.28196    23.510122    22.164629   0.39662021    435.67858   -2164.9333 
   10700   -102585.66   -92846.404    236.50515    20724    226741.82   -28.820425    151.43054   -91.679819     -146.212    435.40334    23.502667      22.1576   0.33592843    435.73927   -2163.5128 
   10800   -102448.83   -92848.799    233.12422    20724    226737.87    82.800753    3.3632267    217.93552    27.103515    435.45747    23.501002     22.15603   0.30886686    435.76633   -2166.3378 
   10900   -102571.85   -92834.227    236.46545    20724    226819.13    3.8096597    2.6690042    136.55493   -127.79495    435.50464     23.50394      22.1588   0.28527879    435.78992   -2176.7181 
   11000    -102541.3   -92790.889    236.77606    20724    226917.06    53.543548    17.852117    568.18308   -425.40455    435.56271    23.507446    22.162105    0.2562475    435.81895   -2220.0675 
   11100   -102446.11   -92829.213     233.5339    20724    226808.16    17.205066    71.246643    159.22181   -178.85325    435.44962    23.504856    22.159664   0.31278876    435.76241   -2182.2027 
   11200   -102437.15   -92753.371    235.15805    20724    227055.62   0.70923133   -4.3255133    136.19777   -129.74456    435.73833    23.509883    22.164403   0.16843402    435.90677   -2252.6466 
   11300   -102486.72   -92763.699    236.11093    20724    226832.28    52.141671   -10.388621    37.117584    129.69605    435.50583    23.504589    22.159412   0.28468744    435.79051   -2252.1159 
   11400   -102492.81   -92709.876    237.56585    20724    226811.17   -27.447587    25.061866   -330.01483     222.6102    435.44547    23.505124    22.159916   0.31486601    435.76033   -2303.9844 
   11500   -102545.78   -92723.375    238.52427    20724    226936.52   -32.890293   -19.801068   -254.00225    175.13244    435.57249     23.50819    22.162807   0.25135707    435.82384   -2287.1301 
   11600   -102482.37   -92750.534    236.32489    20724    226838.52    20.675314   -51.859545    242.50002   -128.61453    435.58308    23.502828    22.157751   0.24605776    435.82914   -2265.8255 
   11700   -102552.99   -92743.596    238.20843    20724    226911.56   -14.202806    80.418196   -245.33423    122.30761    435.47743    23.509462    22.164006   0.29888334    435.77632   -2272.0385 
   11800    -102476.1   -92728.594    236.70557    20724    226972.72   -44.134018   -166.36455   -188.35668    222.31918    435.63744    23.508312    22.162922   0.21888017    435.85632   -2283.0159 
   11900   -102544.18   -92736.437    238.16818    20724    226882.95    43.006358    20.980612    116.48407   -8.4456049    435.62348    23.504039    22.158894    0.2258603    435.84934   -2281.7237 
   12000    -102557.5   -92719.453     238.9042    20724    227081.74    -22.23757     127.9124   -142.13136   -52.493756    435.57421    23.515664    22.169853   0.25049744     435.8247   -2293.8749 
   12100   -102523.12   -92717.762    238.11046    20724    226763.11   0.45342966    132.68801   -9.0534279    -122.2743    435.52046     23.50061    22.155661   0.27737056    435.79783   -2306.5788 
   12200   -102458.55   -92753.793    235.66734    20724    226915.84    24.411122    150.63645   -160.22764    82.824555    435.66701    23.504569    22.159393   0.20409501     435.8711   -2266.0112 
   12300   -102507.01   -92722.257    237.60995    20724     226822.4   -20.647379   -16.359878   -170.20633    124.62407    435.45123     23.50555    22.160318   0.31198324    435.76322   -2297.6718 
   12400   -102479.01   -92741.407     236.4651    20724    226776.86    15.926005   -70.037782    212.59076   -94.774959    435.45174    23.503177     22.15808    0.3117297    435.76347   -2284.2191 
   12500   -102459.38   -92761.498    235.50042    20724    226693.02    -4.950293    95.887253   -51.505162   -59.232971    435.44685    23.498964    22.154109   0.31417657    435.76102   -2265.7679 
   12600   -102530.33   -92745.311    237.61636    20724    226838.64    11.738817    63.802175   -371.13161    342.54589    435.41264    23.507434    22.162094   0.33127867    435.74392   -2283.0244 
   12700   -102515.84   -92766.825    236.74215    20724    226799.94    6.7470952   0.35482923   -9.4466976    29.333154    435.35372    23.507019    22.161703   0.36074201    435.71446   -2261.8954 
   12800    -102461.2   -92700.636    237.02268    20724    226732.58   -25.098016    116.99503    98.942929     -291.232    435.42639    23.501566    22.156562   0.32440477     435.7508   -2327.8525 
   12900   -102567.44   -92693.809    239.76835    20724    226717.53   -63.151032   -167.30998    173.54313   -195.68625     435.3284    23.503431     22.15832   0.37340177     435.7018   -2335.5542 
   13000   -102449.64   -92700.343    236.74904    20724    226887.33    57.735528    53.555736   -15.674521    135.32537    435.40461    23.510173    22.164676   0.33529563     435.7399   -2331.3942 
   13100    -102536.8   -92662.731    239.77896    20724    226814.15    20.738497    38.427289     65.38153   -41.593329    435.61528    23.500697    22.155742   0.22996035    435.84524   -2371.6894 
   13200   -102407.85   -92635.726    237.30323    20724    226759.46   -30.586734    26.009551   -251.29901    133.52926    435.38126    23.504177    22.159024   0.34696861    435.72823   -2397.3663 
   13300   -102415.31   -92642.946    237.30918    20724    226714.26    34.079769    42.952488   -161.43757    220.72438    435.41163    23.501015    22.156043   0.33178336    435.74342   -2396.7385 
   13400    -102442.8   -92635.168    238.16565    20724    226877.11   -72.718546   -117.47672   -273.61251    172.93359    435.41091    23.509473    22.164017   0.33214563    435.74305   -2393.9425 
   13500   -102459.85   -92666.253    237.82481    20724    226772.54   -74.803946   -135.79759   -21.274823   -67.339421    435.41079    23.504058    22.158912   0.33220584    435.74299   -2368.1755 
   13600   -102376.21   -92614.275    237.05593    20724    226724.17   -18.286685    136.78153    2.0917197    -193.7333    435.39233    23.502049    22.157018   0.34143358    435.73377   -2424.3219 
   13700    -102533.9   -92647.712    240.07317    20724    226632.21   -79.958752   -126.33822   -161.79918    48.261151    435.17503    23.503149    22.158054   0.45008651    435.62511   -2392.2456 
   13800    -102410.1   -92620.172    237.73566    20724    226968.98    18.749661   -95.025816    2.6264858    148.64831    435.51256    23.511488    22.165917   0.28131822    435.79388    -2415.427 
   13900   -102419.83    -92613.03    238.14539    20724    226497.66   -17.724921     -168.121   -149.71822    264.66445    435.24545     23.49427    22.149684   0.41487659    435.66032   -2435.9537 
   14000   -102413.09   -92629.757     237.5756    20724    226766.55    21.679358   -69.193175   -17.376362    151.60761    435.42076    23.503479    22.158365   0.32721885    435.74798   -2413.6611 
   14100   -102408.19   -92609.991    237.93659    20724    226702.25    7.5543801    27.855758     115.9301   -121.12272    435.40436    23.500589    22.155641   0.33541989    435.73978    -2436.866 
   14200   -102399.29   -92620.874    237.45619    20724    226897.18   -78.574317   -98.135544    194.48066   -332.06807    435.58993    23.505682    22.160442   0.24263701    435.83256   -2417.9012 
   14300   -102461.59    -92617.29      239.056    20724    226895.74    26.262443    47.872287    156.18813   -125.27309      435.418    23.510247    22.164746   0.32860089     435.7466   -2428.5897 
   14400   -102426.88   -92598.225    238.67607    20724    226775.45   -7.1744206   -143.05539    -67.85164    189.38377    435.58475    23.499515    22.154628   0.24522582    435.82997   -2450.2941 
   14500   -102318.61   -92505.668    238.29454    20724    226964.89    40.572706    74.732136    187.23116   -140.24518    435.49611    23.511721    22.166136   0.28954671    435.78565   -2538.3115 
   14600   -102326.27    -92524.82    238.01539    20724    226992.88    77.131835    135.98542    121.87661   -26.466523    435.44433    23.514568     22.16882   0.31543647    435.75976   -2521.6282 
   14700   -102380.69   -92529.592    239.22097    20724    226824.02   -95.769517   -117.66298   -270.34313    100.69756    435.49947    23.504333     22.15917   0.28786319    435.78734   -2515.5226 
   14800   -102346.99   -92502.195    239.06797    20724    226944.02    18.389244   -13.207578   -170.75664    239.13195    435.50012    23.510532    22.165014   0.28753762    435.78766   -2545.8688 
   14900   -102275.18   -92549.958    236.16432    20724    226892.23    80.167709    182.86317     115.7587    -58.11874    435.23777    23.514933    22.169164   0.41871529    435.65648   -2502.8039 
   15000      -102302    -92502.85    237.95948    20724    226798.58   -51.263115    37.423143   -87.974043   -103.23845    435.32346    23.507766    22.162407   0.37587244    435.69933   -2545.7599 
   15100   -102367.35   -92492.911    239.78788    20724    226863.45    36.217464   -72.093926   -86.540924    267.28724    435.37979    23.509606    22.164142   0.34770396     435.7275   -2560.8721 
   15200   -102385.04   -92525.244    239.43223    20724    226832.41   -21.943564    39.664505    65.981716   -171.47691     435.5833    23.502506    22.157448   0.24595157    435.82925   -2527.5695 
   15300    -102257.4   -92468.071    237.72111    20724    226789.17   -17.188927   -281.55814   -41.556183    271.54754    435.44983    23.503866    22.158731   0.31268689    435.76251   -2586.3955 
   15400   -102326.43   -92477.162    239.17675    20724    227017.83      64.5237    284.21716    26.442134   -117.08819    435.65875    23.510073    22.164582   0.20822625    435.86697   -2577.9416 
   15500   -102324.11   -92435.014    240.14389    20724    226784.81   -19.878933    142.57017   -75.910218   -126.29675     435.5114    23.501979    22.156951   0.28190197     435.7933   -2623.2744 
   15600   -102298.06   -92474.859    238.54369    20724    226929.17      41.5258   -48.146672    189.12518   -16.401109    435.60859    23.506835    22.161529   0.23330555    435.84189   -2582.8592 
   15700   -102271.85   -92436.905    238.82878    20724    226850.23    69.349116    53.269786    54.478985    100.29858    435.46742    23.506555    22.161266   0.30388958    435.77131   -2626.7628 
   15800   -102244.18   -92421.515    238.53061    20724    227032.23    1.8230004   -63.254849   -3.9941574    72.718007    435.65164    23.511011    22.165466   0.21177998    435.86342   -2631.6522 
   15900   -102287.51   -92458.001    238.69688    20724     226980.5    20.020112    97.005625   -145.16691    108.22162    435.85171    23.502936    22.157853   0.11174543    435.96345   -2600.7354 
   16000   -102333.12   -92433.587    240.39738    20724    227044.34   -2.6878508    90.813455   -18.689402   -80.187605    435.70182    23.510284    22.164781   0.18669187    435.88851   -2622.8198 
   16100   -102299.02   -92422.649    239.83472    20724    226887.06   -46.357398   -25.527877   -24.789029   -88.755287    435.57689    23.505509     22.16028   0.24915524    435.82604   -2636.1236 
   16200   -102183.72   -92429.766    236.86199    20724    226836.26    96.844663   -185.19134    280.80978    194.91554    435.50233    23.504889    22.159695   0.28643438    435.78877   -2637.2518 
   16300   -102193.25   -92431.029    237.06283    20724    226970.37    62.540437    42.814462    210.57873   -65.771877    435.63471    23.508264    22.162876   0.22024284    435.85496   -2632.8816 
   16400   -102278.41    -92347.55    241.15793    20724    226919.24   -36.042819   -48.991819    32.959719   -92.096357    435.59068    23.506804      22.1615   0.24226092    435.83294   -2714.8156 
   16500   -102275.39   -92351.858    240.98008    20724    226723.56   -103.91685    -69.18195   -222.63859   -19.930012    435.33355    23.503605    22.158484   0.37082473    435.70438   -2712.6795 
   16600   -102116.44   -92359.146    236.94328    20724    227033.08    71.853598    24.213277   -175.94581    367.29333    435.26718    23.521436    22.175294   0.40401107    435.67119   -2705.4108 
   16700   -102098.05   -92289.863    238.17916    20724    226890.92   -22.496218    48.165517    -148.0204    32.366233    435.38554    23.510874    22.165337   0.34483037    435.73037   -2776.4061 
   16800   -102190.78   -92283.965    240.57397    20724    227058.13    15.785527   -95.209211    -58.71482    201.28061    435.50734    23.516247    22.170402   0.28392813    435.79127   -2780.1876 
   16900   -102197.77   -92291.501    240.56078    20724    227025.48   0.66915385   -4.6683644    68.943321   -62.267495    435.68436    23.509778    22.164304   0.19542244    435.87978   -2774.5876 
   17000   -102144.86    -92277.06    239.62665    20724    226875.99    50.774259    143.45081   -72.968825    81.840791    435.37462    23.510395    22.164886   0.35029248    435.72491   -2795.3946 
   17100   -102227.43   -92291.378    241.28405    20724    226910.42   -73.151957   -306.97126   -288.45389    375.96928    435.58643    23.506462    22.161178   0.24438507    435.83081   -2777.3835 
   17200   -102149.74   -92303.404    239.10542    20724    227021.46    70.064568    97.447241    42.058474    70.687989    435.64358     23.51067    22.165145   0.21580752    435.85939   -2769.1473 
   17300   -102273.89    -92306.83    242.03697    20724     226931.9   -23.925047   -1.3704941    105.03265   -175.43729    435.61075    23.506918    22.161608   0.23222538    435.84297     -2765.21 
   17400   -102081.16    -92265.41    238.36276    20724    226754.63    52.566043    151.57297   -110.75493    116.88009    435.39156    23.503649    22.158526   0.34181966    435.73338   -2813.6227 
   17500   -102129.82   -92229.894    240.40671    20724    226933.27   -30.225068   -112.71043    72.391996   -50.356775    435.44389    23.511493     22.16592    0.3156561    435.75954   -2841.8663 
   17600   -102154.48   -92187.012    242.04695    20724    226628.42   -48.017976   -92.840809   -51.523444   0.31032497    435.26549     23.50051    22.155566   0.40485445    435.67035   -2892.4667 
   17700   -102056.92   -92179.023    239.87182    20724    226666.58    21.799819   -248.91245   -62.347925    376.65983    435.19479    23.504397    22.159231   0.44020651    435.63499   -2905.4282 
   17800   -102148.43    -92164.11     242.4562    20724    226619.88    -34.19295   -165.24871    296.41447   -233.74461    435.09288    23.504728    22.159543   0.49115871    435.58404   -2922.1845 
   17900   -102114.04   -92196.028    240.84601    20724    226610.44    44.744241    52.400712    157.80433   -75.972315    434.70074    23.514837    22.169074   0.68722799    435.38797   -2895.0002 
   18000   -102107.02   -92179.642    241.07333    20724    226777.72   -24.329804   -112.87491   -94.770567    134.65606    435.16595    23.510938    22.165398   0.45462397    435.62058   -2904.1042 
   18100   -102134.47   -92171.616    241.93495    20724    226747.53   -3.5183081   -49.574674    40.543026   -1.5232768    435.29503    23.505887    22.160635   0.39008396    435.68512   -2915.2232 
   18200   -101969.18   -92102.243    239.60561    20724     226656.6    35.696103   -72.242611    328.27901   -148.94809    435.16481     23.50469    22.159507   0.45519575       435.62   -2989.0277 
   18300   -102034.68   -92098.421    241.28911    20724    226639.09   -51.269201   -197.27926    -132.2499    175.72156    434.98959    23.508515    22.163113   0.54280656    435.53239   -2990.7757 
   18400   -101976.68   -92083.669    240.23885    20724    226631.74    49.806411   -41.255236    -199.9994    390.67387    435.13193    23.504288    22.159128    0.4716344    435.60357   -3008.8601 
   18500   -101984.15   -92083.043    240.43554    20724    226490.16   -28.232897   -102.35396    303.69043   -286.03516    435.06123    23.498855    22.154006   0.50698401    435.56822   -3013.1133 
   18600   -101907.59   -92062.134    239.08414    20724    226404.03   -24.302904   -71.456552   -48.407152    46.954993    434.94779     23.49745    22.152681   0.56370528    435.51149   -3035.1855 
   18700   -102030.88   -92088.828    241.42974    20724    226575.25    47.376107    109.95699   -15.890898     48.06223    434.89617    23.507728    22.162371   0.58951271    435.48569   -3008.2684 
   18800   -102051.47   -92046.091    242.96767    20724    226572.09   -104.76986   -121.28282   -34.665093   -158.36167    434.90821    23.507239     22.16191    0.5834958     435.4917   -3047.4561 
   18900   -101888.01   -92023.964    239.53544    20724    226416.28   -54.055434   -86.869379   -175.19947    99.902543    434.83204    23.501213    22.156229   0.62158048    435.45362   -3074.1395 
   19000   -101983.34   -92026.885    241.77957    20724    226530.08   -46.054112   -36.333884   -2.3439051   -99.484547    434.74454    23.509484    22.164027   0.66533157    435.40987   -3071.7791 
   19100   -101818.58   -92024.344    237.84014    20724    226366.46    37.050272   -112.49916    89.442195    134.20778    434.82334    23.498862    22.154013   0.62593036    435.44927   -3083.2343 
   19200   -101896.46    -92013.48    239.99535    20724    226547.47    19.639354    -74.33701   -104.38921    237.64428    434.75986    23.509971    22.164486    0.6576694    435.41753   -3089.9906 
   19300   -101875.62   -91983.174    240.22519    20724    226580.17    71.153915     94.14983    281.64541    -162.3335    434.90684    23.507695     22.16234   0.58417753    435.49102   -3122.1445 
   19400   -101828.69   -91935.892    240.23367    20724    226502.79    72.213794   -13.957259    65.249277    165.34936    434.85015    23.505213        22.16   0.61252463    435.46268   -3172.7398 
   19500   -101832.77   -91925.942     240.5744    20724     226390.8 -0.048847089    31.068203    29.287794   -60.502538    434.61205    23.505837    22.160588   0.73157566    435.34362   -3182.4292 
   19600   -101859.15   -91932.395    241.05828    20724    226261.11    79.683999    99.476145     56.01356    83.562292    434.47215    23.502886    22.157807   0.80152414    435.27368    -3185.828 
   19700   -101801.32   -91921.676    239.91429    20724    226521.29    25.727165   -45.953837   -7.8957358    131.03107    434.63595    23.511964    22.166365    0.7196238    435.35558   -3185.7486 
   19800   -101814.22   -91919.955    240.26944    20724    226432.78    70.017272   -79.511623    1.5011958    288.06224    434.50297    23.510967    22.165425   0.78611678    435.28908   -3194.9429 
   19900   -101802.36   -91911.845    240.17826    20724    226395.72    24.211064    95.640644   -3.4786685   -19.528784    434.74231    23.502571    22.157509   0.66644656    435.40875   -3203.5289 
   20000   -101836.21   -91904.381    241.18157    20724    226469.98   -48.374232     -23.5085   -75.766245   -45.847951    434.78044    23.505394    22.160171   0.64737967    435.42782   -3206.6083 
   20100   -101886.68   -91898.454    242.55113    20724    226550.61    56.787574    128.84603    111.30144   -69.784743    434.64313    23.513291    22.167616    0.7160331    435.35917   -3218.2805 
   20200   -101828.45   -91899.556    241.11035    20724     226094.7   -7.5566901   -51.072708   -69.343543    97.746181    434.46946    23.494314    22.149725   0.80286939    435.27233   -3226.4679 
   20300   -101821.52   -91877.146    241.48619    20724    226284.89   -27.237592   -40.648751    81.099563   -122.16359    434.52831    23.502602    22.157539   0.77344308    435.30176   -3243.8325 
   20400   -101810.34   -91868.085     241.4347    20724     226186.3    14.131144    189.35612    -42.95838   -104.00431    434.23003    23.505551    22.160319   0.92258534    435.15261   -3260.0912 
   20500   -101698.14   -91830.633    239.61951    20724    226131.78    27.418013  -0.72599874   -102.68995    185.66998    434.10798    23.506021    22.160762   0.98360751    435.09159   -3299.4538 
   20600   -101835.78   -91868.579    242.04044    20724    226378.35    43.576263    113.98044    -161.5633    178.31165     434.1888    23.516645    22.170778   0.94320144      435.132   -3256.5221 
   20700   -101743.54   -91877.276     239.5894    20724    226147.33     61.81025    226.92281   -214.49861    173.00655    434.46651    23.497129    22.152379   0.80434358    435.27086   -3255.7826 
   20800   -101808.59   -91836.201    242.16639    20724    226219.46   -59.688935    74.075086    36.843741   -289.98563    434.46367    23.500953    22.155984   0.80576326    435.26944   -3291.5127 
   20900   -101798.51   -91856.321    241.43321    20724    226423.11   -1.0064891    117.65918    69.382823   -190.06147    434.64102    23.506731    22.161431   0.71708849    435.35811   -3268.2309 
   21000   -101748.49   -91839.669     240.6227    20724    226260.06    59.763339    13.403358    128.83268    37.053976    434.49589     23.50219     22.15715    0.7896553    435.28554   -3293.8769 
   21100   -101842.77   -91833.437    243.06351    20724    226416.84   -110.47232   -67.317323    4.8449151   -268.94455    434.98662    23.497065    22.152319    0.5442898    435.53091   -3290.3216 
   21200   -101783.84   -91813.563    242.11518    20724    226287.87    23.685002    173.30591   -304.15003    201.89912    434.60449    23.500697    22.155743   0.73535326    435.33985   -3320.4068 
   21300   -101709.06    -91801.93    240.58165    20724    226290.04   -23.944422   -34.305381   -125.42036    87.892472    434.60802    23.500715    22.155759   0.73359216    435.34161   -3329.7225 
   21400   -101714.26   -91776.063    241.33627    20724    226363.06    49.788475    1.4002431   -3.6002315    151.56541    434.86954    23.497438     22.15267   0.60283183    435.47237   -3357.3322 
   21500   -101756.48   -91758.914    242.77778    20724    226459.31   -20.383271    80.331308    96.823458   -238.30458    435.00413    23.498796    22.153951   0.53553413    435.53967   -3372.2535 
   21600   -101681.38   -91739.282    241.43093    20724    226260.17    56.275253    133.34494    102.37595    -66.89513    434.74231    23.495534    22.150875   0.66644597    435.40875   -3402.4361 
   21700   -101715.72   -91732.989    242.41769    20724    226410.45   -5.9725585    -60.61407    106.21187   -63.515472    434.58938     23.50747    22.162128   0.74291196    435.33229   -3400.7617 
   21800   -101670.95   -91743.787    241.06822    20724    226423.44    101.31053    241.55075   -80.985453    143.36629    434.74529    23.503929     22.15879   0.66495354    435.41025   -3397.1527 
   21900   -101678.04   -91703.667    242.21464    20724     226364.3   -35.627917   -49.625628   -308.19824    250.94012    434.98043    23.494506    22.149906   0.54738343    435.52782   -3434.2038 
   22000   -101657.57   -91680.896    242.27052    20724    226423.11   -16.524452   -276.52721    217.64085    9.3130004     434.7825    23.502906    22.157825   0.64634777    435.42885   -3456.4365 
   22100   -101692.23   -91669.233    243.39551    20724    226210.54   -69.938217   -104.96036    114.34791    -219.2022    434.21854    23.507121    22.161799    0.9283294    435.14687   -3472.6994 
   22200   -101642.24   -91672.611    242.09955    20724    226174.37   -31.873755    23.104462   -208.33837    89.612646    434.32101    23.502469    22.157413   0.87709703     435.1981   -3474.2897 
   22300   -101637.01   -91667.382    242.09943    20724    226306.08   -22.164701    4.0217014   -222.13777    151.62197    434.20813    23.512367    22.166745   0.93353425    435.14167   -3477.4342 
   22400   -101668.77   -91684.453    242.45603    20724    226261.37    101.34527   -38.008015  -0.92850522    342.97234    434.01151    23.515369    22.169575     1.031847    435.04335   -3469.5947 
   22500   -101702.83   -91676.793    243.46916    20724    226330.67   -32.533936   -139.85484    70.589968   -28.336934    434.20081    23.513843    22.168136   0.93719457    435.13801   -3470.6553 
   22600   -101641.13   -91619.167     243.3704    20724    226402.91    68.702514    35.052496   -96.214884    267.26993    434.45577    23.510693    22.165167   0.80971731    435.26548   -3530.5491 
   22700   -101646.92   -91613.429    243.65026    20724    226427.82   -61.551291   -37.428193   -280.20689    132.98121    434.46755    23.511668    22.166086   0.80382657    435.27137   -3531.6441 
   22800   -101612.55   -91642.515    242.10931    20724    226142.93   -49.794418    42.155252    -90.33983   -101.19868    434.19998    23.504111    22.158961    0.9376112    435.13759   -3512.9689 
   22900   -101583.54   -91627.815    241.76174    20724       226271    26.599261    3.5421251    -129.7577    206.01336    434.34019     23.50697    22.161657   0.86750636    435.20769   -3526.9264 
   23000   -101647.76   -91598.752     244.0272    20724     226159.3  -0.20915685     15.47359   -57.415649    41.314589    434.38077     23.50007    22.155151   0.84721728    435.22798   -3561.2443 
   23100   -101581.49    -91604.08    242.28849    20724       226144   -13.644239    121.71223   -30.606361   -132.03859    434.40319    23.498668     22.15383   0.83600531    435.23919   -3554.0358 
   23200   -101576.47    -91554.32    243.37484    20724    225935.21    -30.94202    14.205997    54.075775   -161.10783    433.86469     23.50239    22.157338    1.1052565    434.96994   -3611.4635 
   23300   -101612.43   -91556.221    244.20201    20724     226132.6    51.493036    112.19262   -33.521827    75.808312    434.00876    23.508751    22.163336    1.0332204    435.04198   -3608.6191 
   23400   -101588.91   -91546.481    243.86722    20724    226094.58   -58.341044   -17.540677   -275.31733    117.83488    434.14639    23.503048    22.157959   0.96440276     435.1108   -3615.1742 
   23500   -101491.69   -91561.192     241.1493    20724    226169.81    50.030647   -13.767532    122.60142    41.258051    434.19787    23.505565    22.160332   0.93866523    435.13653   -3604.8062 
   23600   -101583.74     -91553.4    243.57369    20724    226130.73    68.153045    249.10316    66.820681   -111.46471    434.10712     23.50599    22.160733   0.98404207    435.09116    -3615.783 
   23700   -101461.76   -91514.287    241.56134    20724    226006.64    39.374316    40.046017    -184.2769    262.35383    433.99891    23.502469    22.157414    1.0381468    435.03705   -3657.8369 
   23800   -101456.39   -91468.136    242.55173    20724    226120.27    25.670491    8.7624195   -35.705547     103.9546    434.04578    23.507107    22.161786    1.0147116    435.06049   -3701.1912 
   23900   -101423.84   -91486.945    241.30454    20724    226183.27    20.872251   -68.451657   -15.368203    146.43661    433.83683    23.516043     22.17021    1.1191842    434.95602   -3681.9749 
   24000   -101413.72   -91456.432     241.7997    20724    226304.97    -5.423815    -34.58272   -74.581804    92.893079    434.13369    23.514325    22.168591   0.97075323    435.10445   -3708.0964 
   24100   -101481.06   -91531.472     241.6128    20724    225900.73    11.296754    17.144655   -128.36097    145.10658    433.64174    23.506637    22.161342    1.2167295    434.85847   -3645.7381 
   24200   -101515.85   -91516.124     242.8302    20724    226217.04   -54.909467    -16.06586   -91.398074   -57.264466    433.67499    23.522186    22.176002    1.2001044     434.8751   -3650.5099 
   24300   -101551.04   -91486.728    244.39878    20724    226000.45   -79.169373    53.244736     6.309348    -297.0622    433.45011    23.517021    22.171133    1.3125464    434.76265   -3687.7279 
   24400   -101419.35   -91444.027    242.23771    20724    226175.29    70.152623   -63.482455    167.45278    106.48754    433.45262    23.526048    22.179643    1.3112922    434.76391   -3731.5958 
   24500   -101531.01    -91456.49    244.64665    20724    226090.77   -28.414657    18.689087    222.00163   -325.93469    433.48546    23.520761    22.174658    1.2948688    434.78033   -3720.5448 
   24600   -101535.09    -91431.59    245.35046    20724     226079.9    5.6811084    60.990281   -300.08838    256.14143    433.67342    23.515098    22.169319    1.2008912    434.87431   -3745.9789 
   24700   -101531.61   -91411.664    245.74974    20724    226188.92   -57.563388    -99.87645   -234.50155    161.68783    433.58541    23.523154    22.176915    1.2448968     434.8303   -3761.2927 
   24800   -101508.49   -91412.998    245.15587    20724    225955.31   -61.207964    32.157144   -204.53632   -11.244718    433.41512    23.515622    22.169813    1.3300418    434.74516     -3767.41 
   24900   -101409.94   -91424.367    242.48659    20724    225908.11    69.663925    185.04868    37.362374   -13.419285    433.60661    23.507973    22.162602     1.234295    434.84091   -3763.4985 
   25000   -101480.46   -91421.162    244.27699    20724    226110.28   -25.652578   -43.397335    202.37838   -235.93878    433.79879    23.513279    22.167605    1.1382066    434.93699   -3759.4704 
   25100   -101423.18   -91404.178    243.29851    20724    226145.59   -47.137196    102.24179   -61.348066   -182.30531    433.68374    23.518234    22.172276    1.1957316    434.87947   -3773.8906 
   25200   -101371.46   -91349.807    243.36282    20724     226127.2   -43.887838   -159.70901   -118.17555    146.22105    433.70387    23.516732     22.17086    1.1856671    434.88953   -3829.9751 
   25300   -101487.12   -91352.827    246.09809    20724    226097.31   -13.049929   -100.49745    37.115437    24.232226    433.96153    23.508196    22.162812     1.056835    435.01836   -3831.3713 
   25400   -101404.21   -91376.047    243.52092    20724    225865.36    75.263186   -44.098971   -170.60444    440.49297    433.81916    23.499989    22.155076    1.1280211    434.94718   -3818.9241 
   25500   -101335.34   -91320.225    243.20406    20724    226231.89   -21.396696   -144.81938   -46.548884    127.17818    434.13799    23.510412    22.164901   0.96860428     435.1066   -3858.4253 
   25600    -101308.2   -91334.182    242.20608    20724    226056.83   -20.929997    47.722767   -211.56144    101.04868    433.80175     23.51042    22.164909    1.1367249    434.93848   -3852.3136 
   25700   -101447.21   -91325.979    245.78082    20724    226367.77    10.170747    113.82443   -233.22864    149.91645    434.13289    23.517609    22.171687   0.97115501    435.10404   -3854.4057 
   25800   -101427.47   -91330.531    245.19107    20724    226105.45   -38.868002   -92.335469   -93.091114    68.822578    433.81478    23.512595     22.16696    1.1302116    434.94499     -3857.72 
   25900   -101401.31   -91303.947    245.20133    20724    226016.91    -13.98967   -87.998611   -67.167976    113.19758    433.68479    23.511513     22.16594    1.1952058    434.87999   -3888.0352 
   26000   -101334.19   -91308.152    243.46937    20724    225996.51   -67.864806   -113.53092    204.59124   -294.65473    433.91262    23.504279     22.15912    1.0812909    434.99391   -3883.1437 
   26100   -101383.04   -91303.537    244.76767    20724    225988.55    1.9029125   -4.8046808    155.26371   -144.75029    433.85707     23.50537    22.160148    1.1090638    434.96614   -3892.8882 
   26200   -101413.03   -91286.012    245.92149    20724    225877.73    -40.30185   -54.807322   -156.01368    89.915451     433.8394    23.500085    22.155165    1.1179016     434.9573   -3911.0846 
   26300   -101361.64   -91297.189    244.40218    20724    226126.03   -21.025155    63.404368   -177.67353    51.193696    433.88365    23.511798    22.166209     1.095775    434.97943   -3896.0562 
   26400   -101362.74   -91292.229    244.54916    20724    226117.53   -19.439442   -43.972206   -128.56472     114.2186    433.80759    23.513418    22.167736    1.1338074    434.94139   -3903.1568 
   26500   -101342.33   -91292.111    244.05647    20724    226047.33    77.629839   -118.91566    234.49163    117.31356     433.7064     23.51251    22.166879     1.184399     434.8908   -3912.3344 
   26600   -101383.35   -91275.091    245.46591    20724    226133.16   -21.572381   -157.08027    253.95896   -161.59583    433.84596     23.51319    22.167521     1.114618    434.96058   -3922.2324 
   26700   -101366.86   -91308.566    244.25252    20724    225880.53   -14.953035   -104.24743    124.31349    -64.92516    433.66567    23.504937     22.15974    1.2047662    434.87043   -3897.2578 
   26800   -101337.11    -91228.11    245.48394    20724    226131.41    -115.1693    87.194312   -259.73912   -172.96308    433.66586    23.517981    22.172038    1.2046701    434.87053   -3965.2307 
   26900   -101231.83   -91246.841     242.4725    20724    225902.31    1.0346423    72.227488    102.45758   -171.58114    433.49983    23.510566    22.165047    1.2876835    434.78752   -3960.6829 
   27000   -101351.15   -91259.418    245.06448    20724    225819.09    49.030003    197.95889   -40.664335   -10.204546     433.4773    23.506846     22.16154    1.2989506    434.77625   -3954.5502 
   27100    -101264.9   -91219.933    243.92905    20724    226070.36    75.254428    77.900845    75.784242    72.078196    433.79744     23.51124    22.165682    1.1388784    434.93632   -3990.3739 
   27200   -101232.41   -91173.112    244.27696    20724    225903.36    71.771168    52.465105     16.65066    146.19774    433.72526     23.50451    22.159337    1.1749717    434.90023   -4040.8515 
   27300   -101225.97   -91162.562    244.37666    20724    225955.74     30.73023    51.444514   -37.828396    78.574574    433.66455     23.50888    22.163457    1.2053248    434.86988   -4049.4358 
   27400    -101288.9   -91175.107    245.60034    20724    225895.36   -17.698083   -131.99349   -50.195355    129.09459    433.71869    23.504272    22.159113    1.1782527    434.89695   -4038.3631 
   27500   -101199.36   -91186.584    243.14713    20724    225959.39    32.250301   -89.733415     181.7789    4.7054219    433.86331    23.503684    22.158559    1.1059457    434.96925   -4029.3305 
   27600   -101273.27   -91179.649    245.11038    20724    225951.41    46.804526    195.41253    99.629936   -154.62889    433.82427    23.504327    22.159165    1.1254671    434.94973   -4039.0779 
   27700    -101235.2   -91139.775    245.15414    20724    226258.84    11.045342   -91.489636   -7.7198797    132.34554    434.03222    23.514676    22.168922    1.0214911    435.05371   -4068.9796 
   27800   -101280.44   -91167.232    245.58598    20724    226101.94     63.18255    270.73053   -247.68856    166.50568    433.70708    23.515332     22.16954    1.1840624    434.89114   -4051.2552 
   27900   -101315.15   -91168.824    246.39025    20724    226053.05    54.668187    89.740323    -41.44184    115.70608     433.6805     23.51351    22.167822    1.1973488    434.87785   -4053.3013 
   28000   -101323.09   -91170.053    246.55321    20724    226004.75    7.5403561    -252.2545   -70.599755    345.47532    433.98832    23.502657    22.157591    1.0434384    435.03176   -4050.3864 
   28100   -101252.13   -91132.271    245.74762    20724    226125.72   -9.8111981   -79.188502   -91.789987    141.54489    433.97886    23.509203    22.163762    1.0481705    435.02703   -4085.5113 
   28200   -101244.38   -91124.432     245.7497    20724    226139.28    -31.46345   -65.977636   -1.2803229   -27.132392    433.84897    23.513427    22.167744    1.1131145    434.96209   -4093.3931 
   28300   -101273.78    -91102.05    247.00718    20724    226116.94   -18.691716   -6.4575071     16.10306     -65.7207     433.8136    23.513224    22.167553    1.1308007     434.9444   -4118.7682 
   28400   -101203.62   -91069.166    246.10197    20724    226290.37   -13.321115   -132.07793    132.83089    -40.71631    434.04108    23.516075    22.170241    1.0170585    435.05814   -4145.9971 
   28500    -101202.8   -91105.344     245.2035    20724    226157.45    40.300388    55.079028    37.569467    28.252667    433.84937    23.514361    22.168625    1.1129171    434.96228   -4119.9001 
   28600   -101237.29   -91102.068    246.12072    20724    226121.12    28.752223    0.6721123    72.377153    13.207405     433.9717    23.509158    22.163719    1.0517518    435.02345   -4124.0833 
   28700   -101223.07   -91102.508    245.76467    20724    226166.32    42.755966   -244.31297    29.496343    343.08453    433.86332    23.514444    22.168703    1.1059424    434.96926   -4122.2736 
   28800   -101070.31   -91064.348    242.98164    20724    226165.39   -38.471583    -19.74496   -319.42839     223.7586    434.05347    23.509244    22.163801    1.0108657    435.06433   -4158.3101 
   28900   -101253.24   -91073.399    247.20407    20724    226118.57   -9.0081209    4.1832449    103.36148   -134.56909    433.69521    23.516518    22.170658    1.1899925    434.88521   -4154.0921 
   29000   -101143.84     -91081.3    244.35573    20724    225924.14    35.662811   -21.219378     32.25431      95.9535    433.64142    23.507863    22.162499    1.2168896    434.85831   -4152.7976 
   29100   -101147.99   -91080.469    244.47662    20724    225998.07   -43.873649   -52.138138    51.571022   -131.05383    433.98741    23.502335    22.157287    1.0438932    435.03131   -4149.5285 
   29200   -101165.19   -91018.678     246.3947    20724     226109.3    -23.63325      14.6402    80.510852    -166.0508    433.92301    23.509863    22.164384    1.0760955     434.9991   -4210.7852 
   29300   -101193.59    -91018.19    247.09636    20724    225926.45    9.2098699   -47.950165   -37.097537    112.67731    433.72127    23.505819    22.160572    1.1769655    434.89823      -4218.8 
   29400   -101134.36   -91004.156    245.99879    20724    226038.42    32.836845   -200.00009   -50.779523    349.29015    433.99563     23.50421    22.159055    1.0397841    435.03542   -4231.9234 
   29500   -101208.88   -90991.112     248.1253    20724    226063.34   -3.1326318   -33.176556   -106.98622    130.76488    433.87483    23.508778    22.163361    1.1001834    434.97502   -4244.9139 
   29600   -101157.91   -90972.146     247.3479    20724    225923.63   -47.538476   -12.155802   -92.270923   -38.188703    433.91744    23.500359    22.155424    1.0788789    434.99632   -4265.8142 
   29700    -101176.1   -90975.395     247.7109    20724    226190.78    11.503744   -33.541333    103.64104    -35.58848    433.83726    23.516421    22.170567    1.1189686    434.95623   -4262.2412 
   29800    -101114.1   -90970.357    246.32769    20724    226172.55    77.924856    127.30522     203.2072   -96.737851    433.93672    23.512779    22.167133    1.0692379    435.00596   -4270.9727 
   29900   -101170.83   -90985.259    247.34336    20724    226060.58   -8.4528072   -76.109822   -141.51628    192.26768    434.06642    23.503446    22.158334    1.0043903    435.07081   -4255.7853 
   30000   -101143.86   -90954.548    247.43418    20724    226050.38    40.567766    199.17844   -251.91841    174.44326    433.97789    23.505313    22.160094    1.0486553    435.02654   -4290.3528 
   30100   -101118.76   -90983.346    246.12545    20724    226076.88    7.4295564   -52.556001    136.43406   -61.589385    433.85911    23.509908    22.164426    1.1080446    434.96716   -4261.4596 
   30200   -101146.91   -90965.738    247.23644    20724    225841.16   -24.946443   -186.93664    20.952588    91.144719    433.92262    23.495929    22.151247    1.0762907    434.99891   -4285.2764 
   30300   -101005.68   -90959.742    243.95256    20724    226049.75    172.86624    30.401136    144.01064    344.18694    433.79454    23.510247    22.164746    1.1403299    434.93487   -4293.4842 
   30400   -101081.43   -90961.506     245.7491    20724     225907.3    26.496292   -168.28642    151.70394    96.071357    433.36179     23.51457    22.168821    1.3567057    434.71849   -4291.7452 
   30500   -101116.09   -90942.164    247.06063    20724     225912.8   -24.024878    42.402891   -5.0668798   -109.41064    433.43871    23.512769    22.167124    1.3182439    434.75696    -4310.161 
   30600   -101162.75   -90989.717    247.03885    20724    225716.48   -57.241633   -27.519305   -137.79247    -6.413128    433.06836    23.512598    22.166963    1.5034178    434.57178   -4268.0513 
   30700   -101152.94    -90984.95    246.91644    20724    225883.34     17.07168   -163.53189    92.724106    122.02283    433.11718    23.519962    22.173905    1.4790092    434.59619   -4273.5255 
   30800    -101202.7   -90975.887    248.34487    20724    225852.34   -26.449678    140.94589    41.612605   -261.90753     433.0191    23.521011    22.174894    1.5280484    434.54715   -4283.0415 
   30900   -101075.37    -90938.39    246.16341    20724    225912.03    6.4325107    101.63276    129.15257    -211.4878     433.1957    23.519323    22.173303    1.4397492    434.63545   -4320.4332 
   31000   -101143.42   -90915.161    248.38003    20724    226035.57     -43.8579    18.157406    25.678783   -175.40989    433.09954    23.528365    22.181827    1.4878284    434.58737    -4338.424 
   31100   -100998.93   -90922.765    244.68649    20724    225784.97    31.988719   -248.69053    304.70705    39.949636    433.11649    23.514858    22.169094    1.4793532    434.59585   -4342.7553 
   31200   -101144.81   -90952.026    247.51848    20724    225893.45    14.147067   -55.035749   -24.351879    121.82883    432.99995    23.523672    22.177403    1.5376257    434.53757   -4312.2274 
   31300   -101121.99   -90927.714    247.55474    20724    225686.49    12.039712    51.715551   -70.515904     54.91949    432.84668    23.517056    22.171165    1.6142586    434.46094   -4342.9794 
   31400   -101019.91   -90922.712    245.19725    20724    225663.73   -33.325093   -102.01648     47.18938   -45.148178    432.91462    23.514025    22.168308    1.5802922    434.49491   -4345.6526 
   31500   -100959.71   -90879.794    244.77754    20724    225645.34    14.708862   -57.306332    149.49095   -48.058029    432.84595    23.514932    22.169163    1.6146259    434.46057   -4392.8773 
   31600   -101131.81   -90841.705    249.88168    20724    225877.23   -8.6679428   -33.655138   -120.14769      127.799    432.92263    23.524928    22.178587    1.5762865    434.49891   -4426.7168 
   31700   -101065.75   -90877.335    247.41235    20724    225674.64    8.5089299    216.28024   -95.290272   -95.463175    432.79622    23.517809    22.171876    1.6394889    434.43571   -4397.0597 
   31800   -101082.29    -90847.56    248.53702    20724    225609.15   -22.147877   -39.977702   -85.587092    59.121164    433.14577    23.504907    22.159711    1.4647148    434.61049   -4428.1003 
   31900   -100962.99   -90835.002    245.94498    20724    225739.75    38.279408    118.52255   -22.852752     19.16842    433.12001    23.512408    22.166784    1.4775932    434.59761   -4441.5097 
   32000   -101012.08    -90833.93     247.1631    20724    225806.45    -72.64477   -72.013295   -60.120238   -85.800778    433.19773    23.513772    22.168069    1.4387335    434.63647   -4436.8437 
   32100   -101148.09   -90866.379    249.67807    20724    225875.38   -73.808316   -45.383711   -204.69859    28.657356    433.21241    23.516962    22.171077    1.4313962     434.6438   -4404.5459 
   32200    -101081.6   -90823.752    249.09845    20724    225704.68   -85.456248   -170.82334   -261.70319    176.15778    433.09201    23.511342    22.165778    1.4915936    434.58361   -4451.3671 
   32300   -101028.72   -90783.972    248.78034    20724    225713.59   -75.951278   -34.291412   -251.52053    57.958112    433.30185    23.506112    22.160848    1.3866773    434.68852   -4492.7001 
   32400   -100984.96   -90812.136    247.03387    20724    225876.16    74.552088    43.854902    104.73309    75.068267    433.46751    23.510082     22.16459    1.3038473    434.77135   -4468.3195 
   32500   -101097.08   -90793.893    250.19945    20724    226085.49   -62.078104    74.644628   -3.4111608   -257.46778    433.58413     23.51781    22.171876    1.2455325    434.82967   -4474.8529 
   32600   -101005.03   -90792.771    247.99143    20724    225910.75    102.17861    115.87028    118.88277    71.782768    433.38006    23.514254    22.168524    1.3475705    434.72763   -4490.2198 
   32700   -101059.32   -90766.606    249.94503    20724    225953.93    20.358622    27.787262   -233.36346    266.65207    433.31395    23.518295    22.172333    1.3806265    434.69457   -4512.9277 
   32800   -101105.85   -90787.077     250.5779    20724    225889.06   -20.951587    38.038618    282.91893   -383.81231     433.4008    23.512562    22.166929    1.3372013      434.738   -4494.2857 
   32900   -100992.25   -90738.874    248.98981    20724    225819.61   -49.909515   -37.778257    -61.47537   -50.474918    433.28826       23.512    22.166399      1.39347    434.68173   -4542.3821 
   33000   -100974.33     -90750.5    248.27232    20724    225949.48   -18.012429    8.8461202   -125.33324    62.449833    433.33889    23.517386    22.171477    1.3681572    434.70704   -4529.1567 
   33100   -100892.63   -90758.462    246.09514    20724    225745.56   -17.075251   -34.693589    141.12861   -157.66077    433.08958    23.513537    22.167848    1.4928085    434.58239   -4526.2289 
   33200   -100905.39   -90715.507      247.448    20724    225859.18    16.037256    119.67333    14.064448   -85.626006    433.22296    23.515832    22.170012    1.4261182    434.64908    -4569.501 
   33300   -101026.04   -90748.422    249.57865    20724    225764.39     17.73453   -30.754758    -50.16709    134.12544    432.92489     23.51899    22.172988    1.5751566    434.50004     -4541.53 
   33400   -100960.55   -90711.742    248.87895    20724    225733.22    26.955831    137.72065    -192.4594    135.60624    432.80439     23.52064    22.174544    1.6354067    434.43979   -4579.0413 
   33500   -101015.93   -90731.201    249.75123    20724    225895.61    16.675828    53.782006   -216.43697    212.68245    433.16054    23.519423    22.173397    1.4573279    434.61787    -4556.216 
   33600    -100956.3   -90754.602    247.73492    20724    225821.34   -29.167178    29.443639     21.70276   -138.64793    433.06409    23.518175     22.17222    1.5055562    434.56964   -4533.8049 
   33700   -100888.49   -90709.836    247.17541    20724    225868.13    -46.62516   -64.382108    33.839431    -109.3328    433.54377    23.507596    22.162247    1.2657166    434.80948    -4578.485 
   33800   -100928.27   -90731.197    247.62268    20724    225974.91   -46.380163    -124.6385     107.3407   -121.84269    433.25663    23.520943     22.17483    1.4092862    434.66591    -4552.434 
   33900   -100884.78   -90718.257    246.88087    20724    225873.05    69.501344    221.68447    74.074164   -87.254601    433.37687    23.512378    22.166755    1.3491643    434.72604    -4575.977 
   34000   -100973.81   -90685.337    249.84214    20724    225855.24    28.947861    34.712525   -242.07515     294.2062    433.14225    23.517818    22.171884    1.4664752    434.60872   -4610.4223 
   34100   -100959.38   -90694.754     249.2631    20724    226025.29   -28.775516    103.66716   -124.14712   -65.846594    433.23669    23.524106    22.177812    1.4192548    434.65595    -4594.112 
   34200   -100965.47   -90705.965    249.13885    20724    226005.93   -20.594531     190.7687    183.20992   -435.76221    433.43042    23.517841    22.171905    1.3223886    434.75281   -4586.6543 
   34300   -100967.89   -90660.733    250.29592    20724    226013.83   -22.071539    47.109415     117.0268   -230.35083    433.33669    23.520795     22.17469     1.369256    434.70594   -4632.4569 
   34400   -100869.12   -90667.663    247.72902    20724    226093.64    5.2634196    10.072432   -259.93856    265.65639    433.51315    23.520159    22.174091    1.2810225    434.79418   -4623.7062 
   34500   -100922.82   -90717.252    247.82888    20724    225850.25   -20.995266   -60.142269    36.820603   -39.664132    433.26176    23.514314    22.168581    1.4067176    434.66848   -4580.4549 
   34600   -100953.55   -90680.192    249.47517    20724    226094.41    79.551982    197.02245    205.17206   -163.53856    433.51713    23.520091    22.174027     1.279036    434.79616   -4616.5265 
   34700   -100911.49   -90711.802     247.6861    20724    225677.76    57.316769    71.234587   -68.307086    169.02281    433.39193    23.501803    22.156786    1.3416343    434.73357   -4598.1987 
   34800   -101034.85   -90718.956    250.50813    20724    226148.36   -38.163642   -90.969903   -14.514689   -9.0063333    433.77035     23.51603    22.170198    1.1524226    434.92278   -4573.8408 
   34900   -100907.55   -90727.054    247.22016    20724    225824.45    35.105897     139.5765   -59.069676    24.810862    433.18901    23.514946    22.169176     1.443097     434.6321   -4579.3536 
   35000   -100945.29   -90668.797    249.55116    20724    226086.55    3.8357406    80.728431   0.45586733   -69.677077     433.9523    23.507886     22.16252     1.061449    435.01375   -4632.3947 
   35100   -100886.59   -90702.104    247.31691    20724    226011.89     53.05865   -21.620005     421.7185   -240.92255    433.72898    23.510055    22.164565    1.1731105    434.90209   -4603.8098 
   35200   -100918.43   -90647.361    249.41959    20724    225936.28    3.0031398   -4.1626667   -124.70035    137.87243    433.56378      23.5106    22.165078    1.2557085    434.81949    -4661.055 
   35300   -100888.54   -90653.837     248.5365    20724    226017.34    61.044138    67.883568    201.84039   -86.591548    433.59206     23.51405    22.168331    1.2415702    434.83363   -4654.6411 
   35400   -100998.36   -90661.174    251.02504    20724    226124.72   -16.064931   -128.42603   -161.03784    241.26908    433.76975    23.514817    22.169054    1.1527236    434.92248   -4640.9789 
   35500   -100901.16    -90649.23    248.95478    20724    225987.45   -30.425049   -26.021726    6.7193454   -71.972768    433.60561    23.512128    22.166519    1.2347961     434.8404   -4658.1492 
   35600   -100888.51   -90642.629    248.80789    20724    225928.55    6.9047272    101.32957    183.99614   -264.61153    433.62833    23.508448     22.16305    1.2234359    434.85176   -4668.4833 
   35700   -100936.01   -90653.341    249.70126    20724    226068.17    79.268645    16.283793    6.2159298    215.30621    433.76586    23.511982    22.166382    1.1546715    434.92053   -4659.5736 
   35800   -100787.41   -90610.885    247.12354    20724    226121.34    36.641524   -175.42801    443.60409   -158.25151     433.9567    23.509576    22.164113    1.0592491    435.01595   -4697.8571 
   35900   -100860.54   -90617.557    248.73738    20724    226011.43   -76.797317    10.100408    65.590561   -306.08292     433.6541    23.512061    22.166456    1.2105497    434.86465   -4689.4546 
   36000   -100773.64   -90559.298    248.04211    20724    226040.53     70.25396    200.24068    -22.11822    32.639421    433.74927    23.510994    22.165451    1.1629647    434.91224   -4755.8723 
[...]
  491300   -93248.257   -80371.753    312.68912    20724    221498.28    47.818191    32.705347   -39.465031    150.21426    422.67652    23.576445    22.227156     6.699339    429.37586   -22647.249 
  491400   -93318.175   -80394.227    313.84125    20724    221417.21   -118.46831   -117.68196    -77.53535   -160.18761    422.79765    23.568754    22.219905    6.6387761    429.43642   -22620.188 
  491500   -93231.538   -80344.244    312.95114    20724    221440.06    89.310205    181.13932   -114.09733    200.88862    422.52745    23.577505    22.228155    6.7738766    429.30132   -22681.273 
  491600   -93216.883   -80276.301    314.24518    20724    221870.53    9.0323187    108.36981    117.29328   -198.56613    422.81242    23.592456    22.242251    6.6313921    429.44381   -22729.673 
  491700   -93357.703   -80321.277    316.57263    20724    221601.39   -142.34231    230.74658   -270.04574   -387.72777    422.68243    23.581768    22.232174    6.6963835    429.37882   -22691.582 
  491800    -93161.58   -80334.748    311.48289    20724    221457.16    -17.13056    46.883399   -136.06057    37.785493    422.87237    23.568797    22.219946    6.6014146    429.47379   -22686.641 
  491900   -93232.413    -80331.69    313.27724    20724    221291.59    1.7409782    77.865409    208.18199   -280.82447    423.02623      23.5557    22.207598    6.5244833    429.55072   -22700.266 
  492000   -93357.226   -80344.098    316.00685    20724    221589.23     31.51798   -32.425212    146.71652   -19.737368    423.07063    23.570299    22.221362    6.5022852    429.57291   -22681.285 
  492100   -93166.507   -80376.833    310.58057    20724       221681    68.096099   -88.317794    332.31267   -39.706577    422.59385    23.588475    22.238497     6.740675    429.33453   -22645.069 
  492200   -93148.921    -80364.51    310.45277    20724    221584.35    134.66916     123.2919   -311.39851     592.1141    422.78898    23.577889    22.228517    6.6431114    429.43209   -22667.362 
  492300   -93099.981   -80318.401    310.38403    20724    221322.03   -33.849175   -307.99601    26.654527    179.79396    422.60064     23.56918    22.220306    6.7372818    429.33792   -22717.016 
  492400   -93284.288   -80344.731    314.22028    20724    221533.61   -53.666237   -200.49445     -73.9327    113.42844    422.79825    23.574932    22.225729    6.6384774    429.43672   -22683.688 
  492500   -93273.733   -80357.146     313.6625    20724    221384.32   -84.366428    -241.4703    294.25008   -305.87906    422.54609    23.574017    22.224867    6.7645562    429.31064   -22680.223 
  492600   -93202.377   -80379.118    311.39613    20724    221436.67   -52.216582    189.74344   -264.56772   -81.825464    422.24558    23.585193    22.235403     6.914811    429.16039   -22659.095 
  492700   -93179.066   -80425.983      309.692    20724    221362.54    24.577254    20.305506   -37.476809    90.903063      422.283      23.5802    22.230695       6.8961     429.1791   -22619.218 
  492800   -93289.176    -80419.56    312.52187    20724    221277.44    15.803469     32.53473   -170.29634    185.17202    422.45786    23.570787    22.221821    6.8086692    429.26653   -22631.885 
  492900   -93241.084   -80417.717    311.39876    20724     221606.3    94.183504    264.24854   -56.775081    75.077055    422.76242    23.579798    22.230317    6.6563907    429.41881   -22627.387 
  493000   -93317.954   -80408.078    313.49952    20724    221428.85   -85.759194   -384.63924    99.042636    28.319022    422.61052    23.574591    22.225408    6.7323412    429.34286   -22635.964 
  493100   -93327.294   -80427.636    313.25139    20724    221492.84    34.345296    119.64668    37.092597   -53.703391    422.56673    23.579219    22.229771     6.754235    429.32097   -22622.946 
  493200   -93285.031   -80460.953    311.41603    20724     221126.9    57.256739    168.71538   -228.37857     231.4334    422.18067    23.570502    22.221553    6.9472651    429.12793   -22605.019 
  493300   -93326.144   -80490.457    311.69793    20724     221301.3   -31.587975    25.673401   -238.66595    118.22862    422.25525    23.577713    22.228351    6.9099766    429.16522   -22566.907 
  493400   -93248.995   -80437.797    311.10327    20724     221275.7   -12.770792   -55.758575   -11.641314    29.087512    422.32899     23.57429    22.225124    6.8731053    429.20209   -22623.658 
  493500   -93299.263     -80448.2    312.07131    20724    221518.17     24.17003   -24.607459    280.93934   -183.82179    422.55166    23.580987    22.231438    6.7617683    429.31343   -22607.435 
  493600   -93323.289   -80463.389    312.28592    20724    221252.99    58.622402    103.46781   -24.978629    97.378024     422.6761    23.563399    22.214857    6.6995517    429.37565   -22605.571 
  493700   -93415.276   -80487.098    313.94397    20724    221522.99    38.136229    39.869417   -82.234199    156.77347    423.08688    23.566324    22.217613    6.4941621    429.58104   -22573.814 
  493800   -93327.789   -80511.187    311.23448    20724    221118.43   -18.375406   -201.44287   -92.217928    238.53458    422.97343    23.547952    22.200293    6.5508837    429.52432    -22562.35 
  493900   -93333.726   -80497.011     311.7229    20724    221377.39     71.47218   -34.754483    168.86288    80.308138    422.71631    23.568902    22.220044    6.6794449    429.39576   -22573.477 
  494000   -93357.878   -80498.374    312.27629    20724    221483.99  -0.98757899   -19.050284   -302.08209    318.16964     422.9805    23.567212    22.218451    6.5473479    429.52785   -22564.995 
  494100   -93417.907   -80497.292     313.7603    20724    221318.55   -82.880292   -114.95799   -102.29498   -31.387905    422.94457    23.559409    22.211095    6.5653164    429.50988   -22571.604 
  494200   -93419.775   -80525.816      313.113    20724    221098.93   -98.866587   -105.29417   -128.70543   -62.600161    422.73979     23.55342    22.205448    6.6677056    429.40749   -22552.546 
  494300   -93391.111   -80521.657    312.51792    20724    221123.79   -23.940221   -44.904531   -111.16677    84.250643    422.51846    23.560913    22.212512    6.7783688    429.29683   -22559.255 
  494400    -93231.79   -80504.326    309.06989    20724    221469.53   -50.509434   -283.23073    105.11651    26.585925    422.55703    23.578249    22.228856    6.7590849    429.31612   -22565.352 
  494500   -93413.709   -80548.117    312.42413    20724     220970.8    -69.40622    52.155864   -253.65604   -6.7184833    422.08382    23.564884    22.216256    6.9956911    429.07951   -22543.334 
  494600   -93280.593   -80512.872    310.04747    20724    221125.09   -84.921893    24.062244   -77.322393   -201.50553    421.83005    23.580199    22.230695    7.1225746    428.95263   -22573.587 
  494700   -93346.042   -80471.152    312.64993    20724    221112.69     29.28835    250.15782   0.39365915   -162.68643    421.81476    23.579965    22.230474    7.1302217    428.94498   -22621.348 
  494800   -93273.421   -80459.776    311.16265    20724    220913.58    53.260123   -178.48206    211.73258    126.52986     421.5194    23.577602    22.228246    7.2778997     428.7973   -22646.589 
  494900   -93254.437   -80484.995    310.08925    20724    220641.95   -85.965477   -17.167857   -49.286559   -191.44201     421.8131    23.554898    22.206841    7.1310491    428.94415   -22626.842 
  495000   -93299.661   -80463.451    311.71063    20724     220723.7    62.649132   -47.154597     112.6031    122.49889    421.40648    23.570625    22.221668    7.3343594    428.74084   -22654.972 
  495100   -93188.936   -80460.241    309.09978    20724    220887.78   -23.921583    -53.54083    30.262614   -48.486534    421.24778    23.583825    22.234113    7.4137097    428.66149   -22648.025 
  495200   -93337.178   -80443.259    313.11202    20724    220708.01   -44.894734   -237.61141   -208.14676    311.07397    421.08268    23.578847     22.22942    7.4962586    428.57894   -22673.818 
  495300   -93212.934   -80416.213    310.75169    20724    220857.27    39.127021    -26.02446   -20.445779     163.8513    420.91483    23.591521    22.241369     7.580183    428.49502    -22700.35 
  495400   -93169.146   -80402.307    310.02606    20724    220937.87   -23.099235    71.402816   -107.99629   -32.704226    420.78892    23.599356    22.248755    7.6431391    428.43206   -22711.033 
  495500   -93312.713   -80401.577    313.53014    20724    221000.53    -6.401745    110.78423   -41.458025   -88.531438    421.15588    23.592417    22.242214    7.4596616    428.61554   -22713.196 
  495600   -93188.559   -80371.037    311.25683    20724    221201.23    27.859397    243.68075   -2.8151372   -157.28742    421.18823    23.602221    22.251456    7.4434872    428.63171   -22737.584 
  495700   -93065.042   -80374.943    308.16251    20724    221032.19    22.629786   -247.98653    108.86648    207.00941    421.01216    23.598134    22.247603    7.5315198    428.54368   -22742.579 
  495800   -93129.283   -80346.087    310.42325    20724       221175    69.233727   -106.05163    -83.62383    397.37664    420.96365    23.607116    22.256072    7.5557763    428.51942   -22768.331 
  495900   -93177.502   -80346.569     311.5825    20724    220886.45     55.91762    75.160628    -14.73305    107.32528    421.01866    23.590171    22.240096    7.5282721    428.54693   -22781.427 
  496000   -93155.678   -80324.998    311.57634    20724    220909.45   -67.871892   -25.915349     87.61965   -265.31998    421.11756    23.588628    22.238642    7.4788188    428.59638   -22800.625 
  496100   -93097.528   -80351.023    309.53227    20724    220801.23    64.626321    74.348224    92.464996    27.065744    421.22466    23.579851    22.230367    7.4252692    428.64993   -22783.278 
  496200   -93249.279   -80396.717    312.10773    20724    220914.72    97.085717    454.53279   -301.79019    138.51456    421.47708    23.578847     22.22942    7.2990592    428.77614   -22740.501 
  496300   -93207.225   -80445.278    309.90725    20724    220706.62    45.816166     -72.7843    56.385857    153.84694    421.61377    23.563918    22.215346    7.2307169    428.84448   -22700.081 
  496400   -93305.497   -80461.418    311.90172    20724    220457.63   -53.926785   -124.87708    9.3629647   -46.266241    421.42233    23.555971    22.207853    7.3264343    428.74877   -22689.518 
  496500    -93288.64   -80451.785    311.72632    20724    220993.87    121.63954    214.28074    64.867214    85.770679    421.96133    23.569534     22.22064    7.0569326    429.01827    -22689.39 
  496600   -93281.237    -80447.48    311.65108    20724    220806.59   -26.942287    15.695833    18.983171   -115.50586    421.89948    23.561272    22.212851    7.0878613    428.98734   -22697.087 
  496700   -93145.238   -80439.513    308.54198    20724    220712.11    19.789511   -374.18677    194.33565    239.21965    421.57317    23.565346    22.216692    7.2510134    428.82419    -22711.39 
  496800   -93364.467   -80442.313    313.79769    20724    220528.65   -195.64856    -379.4577   -115.98137   -91.506593    421.74174    23.550842    22.203018    7.1667314    428.90847   -22709.095 
  496900   -93166.257   -80443.342    308.95942    20724     220594.7    81.457491    -30.30995    -84.66327    359.34569    421.55349    23.559627      22.2113    7.2608558    428.81434   -22717.173 
  497000   -93366.561   -80472.918    313.10533    20724    220499.69   -50.177611   -265.56958    12.728283    102.30846    420.74588    23.577148    22.227819    7.6646604    428.41054   -22691.863 
  497100   -93344.651   -80463.835    312.79383    20724    220512.41    35.858172    8.1420191    228.95517   -129.52268    420.87075     23.57433    22.225162    7.6022271    428.47297   -22702.644 
  497200   -93176.966   -80460.921    308.79258    20724       220570   -97.267284   -159.94409   -261.32895    129.47119    421.21441    23.567788    22.218994    7.4303935    428.64481   -22700.108 
  497300   -93242.389   -80458.648    310.43651    20724    220086.28    66.197357   -103.52485    316.38574   -14.268818    420.82614    23.552789    22.204854    7.6245281    428.45067   -22731.278 
  497400    -93255.01   -80417.017    311.75394    20724    220280.03    6.3847991   -80.786522    50.638697    49.302223    420.68785    23.567027    22.218276    7.6936761    428.38152     -22764.4 
  497500   -93262.872   -80417.394    311.93569    20724    220020.05    2.2563978   -135.87627    210.38354   -67.738077     420.3444    23.562735    22.214231    7.8653987     428.2098   -22774.509 
  497600   -93228.913   -80375.139    312.13715    20724    220243.41   -125.57794   -201.03044    14.347859   -190.05125    420.14869    23.580183    22.230679    7.9632536    428.11195   -22805.368 
  497700   -93207.577   -80406.673    310.85328    20724    220435.74    275.77615    334.53876    69.384647    423.40504    420.25363    23.587531    22.237607     7.910783    428.16442   -22785.536 
  497800    -93197.71   -80385.335    311.13182    20724    220344.63    100.70774   -35.919532    151.54827    186.49447    420.13355    23.586026    22.236188     7.970826    428.10437   -22805.026 
  497900   -93163.464   -80396.768    310.02256    20724    220408.13    56.317521   0.67601578    195.00134   -26.724794    420.02114    23.592581    22.242368    8.0270302    428.04817   -22790.663 
  498000   -93288.818   -80449.478    311.78665    20724    220357.95    -136.1363   -49.538435   -179.32269   -179.54776    420.15203     23.58622    22.236371    7.9615852    428.11361   -22733.819 
  498100   -93313.051   -80416.221    313.18271    20724     220396.2    67.155035    360.81907   -191.33961    31.985646    420.39826    23.581358    22.231788    7.8384704    428.23673   -22775.232 
  498200    -93238.13   -80401.361    311.72421    20724    220504.11    18.899913    428.87318   -84.907476   -287.26596    420.57966    23.582043    22.232433    7.7477708    428.32743   -22786.794 
  498300   -93134.986   -80376.435     309.8248    20724    220447.54   -46.459003   -47.318875    73.046023   -165.10416    420.80801     23.57262    22.223549    7.6335954     428.4416   -22810.838 
  498400   -93318.481   -80405.076    313.58522    20724    220608.27   -106.44549   -194.55492   -141.03489    16.253339    420.98849    23.576156    22.226883    7.5433541    428.53185   -22777.885 
  498500   -93262.509   -80394.655    312.47907    20724    220487.51   -7.4215821    245.66814   -455.61686    187.68397    420.97692    23.570027    22.221104    7.5491425    428.52606   -22799.103 
  498600   -93189.784   -80390.552    310.81268    20724    220774.58   -82.016698   -80.685706    -214.9083    49.543916    421.34454    23.575074    22.225863    7.3653324    428.70987   -22789.985 
  498700   -93204.173   -80427.756    310.25862    20724    220625.13   -28.423185   -189.58404   -121.56842    225.88291    421.48733    23.563101    22.214575    7.2939366    428.78126   -22762.413 
  498800   -93353.704   -80414.641    314.20828    20724    220735.31   -41.869516    2.1449412    98.996984   -226.75047    421.66511    23.564015    22.215437    7.2050428    428.87016   -22773.594 
  498900   -93304.082   -80388.504    313.63798    20724    220927.61    21.726041     219.9944   -354.45144    199.63516    421.69138    23.573543    22.224419    7.1919088    428.88329   -22796.807 
  499000   -93109.831   -80405.339    308.51204    20724    220714.33    -21.44996   -45.623149    -134.6605    115.93377    421.45262    23.568834     22.21998    7.3112916    428.76391   -22787.337 
  499100   -93236.546   -80397.481    311.77997    20724    220543.79   -27.696091    -356.5705    42.415082    231.06715    420.82739    23.577222    22.227888    7.6239037     428.4513   -22804.214 
  499200   -93226.844   -80339.863    312.94353    20724    220923.51    115.83768    13.208822    441.40777   -107.10355    421.56671    23.576809    22.227499     7.254243    428.82096   -22859.021 
  499300   -93127.409   -80329.357    310.78403    20724    220967.31   -10.710571    -6.416331    83.680694   -109.39607    421.43869    23.582727    22.233078    7.3182559    428.75694   -22860.144 
  499400   -93322.579   -80370.246    314.53053    20724    220852.89   -39.213443   -142.52926    82.563151   -57.674216    421.19776    23.583363    22.233678    7.4387177    428.63648   -22825.512 
  499500   -93164.027   -80342.949    311.34318    20724    220871.15   -154.99271   -28.076814   -166.57584   -270.32549    421.28521     23.58189    22.232289    7.3949941    428.68021   -22847.946 
  499600   -93231.632   -80364.671    312.45739    20724    220978.13    40.720583   -32.622172    272.16714   -117.38322    421.56059    23.579895    22.230408    7.2573074    428.81789   -22832.702 
  499700   -93160.611   -80370.724    310.58576    20724    220833.79    52.908276    130.07257    199.37445    -170.7222    421.37089    23.577498    22.228148    7.3521572    428.72304    -22836.13 
  499800   -93212.637   -80348.524    312.38823    20724    220861.85     -73.1202    -79.57716   -176.18925     36.40581    421.19089    23.584034     22.23431    7.4421556    428.63304   -22854.464 
  499900   -93164.551   -80380.223    310.45074    20724    221004.42    3.9732749      121.755   -66.928387   -42.906788     421.3867    23.586162    22.236317    7.3442507    428.73095   -22820.715 
  500000   -93218.569   -80397.032    311.35431    20724    221196.58   -64.503012    -205.2484    67.454144   -55.714782    421.60282    23.590366    22.240279    7.2361907    428.83901   -22796.331 
Loop time of 52718.2 on 32 procs for 500000 steps with 20724 atoms

Performance: 1.639 ns/day, 14.644 hours/ns, 9.484 timesteps/s
97.3% CPU use with 32 MPI tasks x no OpenMP threads

MPI task timing breakdown:
Section |  min time  |  avg time  |  max time  |%varavg| %total
---------------------------------------------------------------
Pair    | 6464.7     | 9270.7     | 13057      |2525.6 | 17.59
Bond    | 0.38762    | 0.45926    | 0.57208    |   6.2 |  0.00
Kspace  | 8679.7     | 12483      | 15306      |2190.6 | 23.68
Neigh   | 8394.8     | 10357      | 12089      |1358.6 | 19.65
Comm    | 315.81     | 3842.3     | 7516.2     |4304.8 |  7.29
Output  | 4.3703     | 45.44      | 73.97      | 373.9 |  0.09
Modify  | 13125      | 16678      | 21808      |2435.4 | 31.64
Other   |            | 41.59      |            |       |  0.08

Nlocal:    647.625 ave 715 max 604 min
Histogram: 5 2 11 1 1 3 5 2 1 1
Nghost:    7193.5 ave 7841 max 6633 min
Histogram: 6 3 6 2 0 1 2 4 3 5
Neighs:    238040 ave 284256 max 214720 min
Histogram: 7 11 1 0 1 4 4 3 0 1
FullNghs:  476078 ave 567457 max 427197 min
Histogram: 5 12 2 0 0 4 4 4 0 1

Total # of neighbors = 15234506
Ave neighs/atom = 735.114
Ave special neighs/atom = 2
Neighbor list builds = 500000
Dangerous builds not checked
write_data production.R1
PPPM initialization ...
  extracting TIP4P info from pair style
WARNING: Using 12-bit tables for long-range coulomb (../kspace.cpp:316)
  G vector (1/distance) = 0.345921
  grid = 400 48 48
  stencil order = 5
  estimated absolute RMS force accuracy = 0.000401364
  estimated relative force accuracy = 1.2087e-06
  using double precision FFTs
  3d grid and FFT values/proc = 64980 38400
write_restart restartproduction.R1
PPPM initialization ...
  extracting TIP4P info from pair style
WARNING: Using 12-bit tables for long-range coulomb (../kspace.cpp:316)
  G vector (1/distance) = 0.345921
  grid = 400 48 48
  stencil order = 5
  estimated absolute RMS force accuracy = 0.000401364
  estimated relative force accuracy = 1.2087e-06
  using double precision FFTs
  3d grid and FFT values/proc = 64980 38400
Total wall time: 14:38:38
