LAMMPS (30 Jul 2016)
# Sets up LAMMPS simulation for transient melting of ice: TIP4P/Ice
# Ensure cold thermostats do not move
# Thinbox: 16x1x1
# Defects
# Order param l=2

#### setting MD parameters ####
units real
boundary p p p
atom_style full

# read ice box in restart file
### read the equilibrated NPT restart file

read_restart restart.state
  orthogonal box = (0.336118 0.0181374 0.0170994) to (435.739 23.5131 22.1674)
  32 by 1 by 1 MPI processor grid
  20736 atoms
  13824 bonds
  6912 angles
  2 = max # of 1-2 neighbors
  1 = max # of 1-3 neighbors
  1 = max # of 1-4 neighbors
  2 = max # of special neighbors


#### force field definition ####
pair_style      lj/cut/tip4p/long 2 1 1 1 0.1577 10.0
pair_modify	tail yes

kspace_style	pppm/tip4p 1.0e-6

bond_style	harmonic
angle_style	harmonic
dihedral_style	none
improper_style	none

bond_coeff	1 450.0 0.9572
angle_coeff	1 55.0 104.52


# reset pair coeff
pair_coeff	* * 0.0 0.0

#OO
pair_coeff	2 2 0.21085 3.1668
#OH
pair_coeff	* 1 0.0000 0.0000

neighbor        2.0 bin
neigh_modify    every 1 delay 1 check no

timestep	2.0
fix		constraints all shake 0.000001 20 0 b 1 a 1
  0 = # of size 2 clusters
  0 = # of size 3 clusters
  0 = # of size 4 clusters
  6912 = # of frozen angles

group water type 1 2
20736 atoms in group water

#*********** SIMULATION PARAMETER TO ADJUST ****************
#Box dimensions
variable lx equal lx
variable ly equal ly
variable lz equal lz

### Temperature of the hot and cold regions ####
variable thi equal 375
variable tlo equal 215
variable runpressure equal 0.986923


# Configuration equilibrated in density and temperature

# Define dx here

variable lx equal lx
variable ly equal ly
variable lz equal lz

variable xlo equal xlo
variable xhi equal xhi

variable boxcentre equal ${xlo}+(${xhi}-${xlo})/2
variable boxcentre equal 0.336118284387652+(${xhi}-${xlo})/2
variable boxcentre equal 0.336118284387652+(435.739081715608-${xlo})/2
variable boxcentre equal 0.336118284387652+(435.739081715608-0.336118284387652)/2

variable dx equal 2.0

#### ADD IN DEFECTS AT THE CENTRE OF THE HOT THERMOSTAT #####
variable y1 equal ${ly}/2.0
variable y1 equal 23.4949252172405/2.0
variable z1 equal ${lz}/2.0
variable z1 equal 22.1503012375854/2.0

region kill1 sphere ${boxcentre} ${y1} ${z1} 3
region kill1 sphere 218.037599999998 ${y1} ${z1} 3
region kill1 sphere 218.037599999998 11.7474626086202 ${z1} 3
region kill1 sphere 218.037599999998 11.7474626086202 11.0751506187927 3
delete_atoms region kill1 compress no bond yes mol yes
Deleted 12 atoms, new total = 20724
Deleted 8 bonds, new total = 13816
Deleted 4 angles, new total = 6908
############


variable thip equal ${thi}*2.0/3.0
variable thip equal 375*2.0/3.0
variable tlop equal ${tlo}*2.0/3.0
variable tlop equal 215*2.0/3.0
variable hbl equal ${boxcentre}-${dx}
variable hbl equal 218.037599999998-${dx}
variable hbl equal 218.037599999998-2
variable hbh equal ${boxcentre}+${dx}
variable hbh equal 218.037599999998+${dx}
variable hbh equal 218.037599999998+2

#***************************************************
## EQUILIBRATION PERIOD - to reach the steady state ###
#run 0

#reset the timestep to start your production run
reset_timestep 0

# define a group to perform averages
#group s1 type 1
###*** SYSTEM THERMOSTATTING: HOT and COLD regions ***###

fix NVE all nve
fix PRESS all press/berendsen aniso ${runpressure} ${runpressure} 500000 couple yz
fix PRESS all press/berendsen aniso 0.986923 ${runpressure} 500000 couple yz
fix PRESS all press/berendsen aniso 0.986923 0.986923 500000 couple yz


### Apply THERMOSTATS ###

#set up the "hot region" in the middle of the box
region hot block ${hbl} ${hbh} 0 ${ly} 0 ${lz} units box
region hot block 216.037599999998 ${hbh} 0 ${ly} 0 ${lz} units box
region hot block 216.037599999998 220.037599999998 0 ${ly} 0 ${lz} units box
region hot block 216.037599999998 220.037599999998 0 23.4949252172405 0 ${lz} units box
region hot block 216.037599999998 220.037599999998 0 23.4949252172405 0 22.1503012375854 units box


#set up the "cold region" at the left end of the box
#region cold block ${cbl} ${cbh} 0 ${ly} 0 ${lz} units box

#set up the "cold region" at the right end of the box
#region cold2 block ${h2bl} ${xhi} 0 ${ly} 0 ${lz} units box


#Cold regions  unification
#region cold union 2 cold1 cold2 units box

#Create group of cold molecules
####group cool_ice region cold
####group cool_ice include molecule

####compute cold_temp cool_ice temp
####fix cold_rescale water temp/rescale 1 ${tlo} ${tlo} 0.0001 1.0
####fix_modify cold_rescale temp cold_temp

#this calculates the temperature using only the atoms in the "hot region"
#compute hot_temp all temp/region hot

# calculate the temperature using only WATER in the "hot region"
compute hot_temp water temp/region hot

#this calculates the temperature using only WATER in the "cold region"
#compute cold_temp water temp/region cold


#set up a basic velocity rescale for the hot region WATER with thip
fix hot_rescale water temp/rescale 1 ${thip} ${thip} 1.0 1.0
fix hot_rescale water temp/rescale 1 250 ${thip} 1.0 1.0
fix hot_rescale water temp/rescale 1 250 250 1.0 1.0
#change the thermostat to only act on the "hot region"
#this is done by passing it the "hot temp" compute that we defined above
fix_modify hot_rescale temp hot_temp

#set up a basic velocity rescale for the cold region
#fix cold_rescale water temp/rescale 1 ${tlop} ${tlop} 1.0 1.0
#change the thermostat to only act on the "cold region"
#this is done by passing it the "cold temp" compute that we defined above
#fix_modify cold_rescale temp cold_temp

### Ensure MOMENTUM CONSERVATION ###

#ensure that linear momentum is conserved despite the "thermostatting" by velocity rescaling
fix cons_mom all momentum 1 linear 1 1 1


thermo 100
thermo_style custom step pe etotal temp atoms vol press pxx pyy pzz lx ly lz xlo xhi  f_hot_rescale

group ox type 2
6908 atoms in group ox
group hy type 1
13816 atoms in group hy
compute KE all ke/atom
variable TEMP atom c_KE*4186.8/(1.3806488*6.02214129)

compute cc1 all chunk/atom bin/1d x center 2 units box
#fix TPROFILE all ave/chunk 1 500 500 cc1 v_TEMP density/number file temp.dat
fix TPROFILEox ox ave/chunk 1 500 500 cc1 v_TEMP density/number file temp-ox.dat
fix TPROFILEhy hy ave/chunk 1 500 500 cc1 v_TEMP density/number file temp-hy.dat

compute orderparam ox orientorder/atom degrees 1 2 nnn 4 cutoff 3.5
compute cc2 ox chunk/atom bin/1d x center 2 units box
#fix ORDERPARAM all ave/chunk 1 500 500 cc2 c_orderparam[1] file order-param.dat
fix ORDERPARAM all ave/chunk 1 500 500 cc2 c_orderparam[1] file order-param.dat

restart 50000 config.restart

run 500000
PPPM initialization ...
  extracting TIP4P info from pair style
WARNING: Using 12-bit tables for long-range coulomb (../kspace.cpp:316)
  G vector (1/distance) = 0.345574
  grid = 405 48 48
  stencil order = 5
  estimated absolute RMS force accuracy = 0.000406478
  estimated relative force accuracy = 1.2241e-06
  using double precision FFTs
  3d grid and FFT values/proc = 67260 38880
Neighbor list info ...
  2 neighbor list requests
  update every 1 steps, delay 1 steps, check no
  max neighbors/atom: 2000, page size: 100000
  master list distance cutoff = 12.3154
  ghost atom cutoff = 12.3154
  binsize = 6.1577 -> bins = 71 4 4
Memory usage per processor = 12.7889 Mbytes
Step PotEng TotEng Temp Atoms Volume Press Pxx Pyy Pzz Lx Ly Lz Xlo Xhi hot_resc 
       0   -103726.07    -94896.07    214.42514    20724    226592.27    -101.7729   -134.84059   -57.296537   -113.18156    435.40296    23.494925    22.150301   0.33611828    435.73908            0 
     100   -103623.64   -94645.294    218.02736    20724    226378.77    62.317293   -29.635109    10.151544    206.43544    435.22579    23.488633    22.144369   0.42470504    435.65049   -264.13885 
     200   -103621.82   -94570.657    219.79578    20724    226450.62   -38.568874   -179.61805    19.108763    44.802663    435.25621     23.49154     22.14711   0.40949272    435.66571   -333.00143 
     300   -103526.79    -94528.45    218.51286    20724    226335.06    1.6348493   -34.858042    83.601714   -43.839124    435.00369    23.492361    22.147884   0.53575543    435.53944   -379.29051 
     400   -103635.77   -94467.223     222.6463    20724     226500.8   -99.089557   -180.57115    69.985902   -186.68342    435.17232    23.496407    22.151698   0.45144032    435.62376   -433.26564 
     500   -103532.79   -94475.532    219.94365    20724    226226.74   -50.285453   -90.355181   -113.73514    53.233963    434.88836    23.489853    22.145519   0.59342106    435.48178   -433.84553 
     600    -103538.7   -94405.976    221.77641    20724    226305.19    2.9156875    67.723672   -144.35515    85.378539    435.08954    23.488493    22.144237   0.49283154    435.58237   -505.64399 
     700   -103511.11   -94366.985    222.05316    20724    226339.62   -39.342044   -136.79059   -205.95057    224.71503     435.1346    23.489063    22.144775   0.47030092     435.6049   -541.35676 
     800   -103416.21   -94345.997    220.25823    20724     226336.6    21.164845    27.426562    131.37495   -95.306981    435.23943    23.486078     22.14196   0.41788364    435.65732    -567.1177 
     900   -103402.76   -94295.376    221.16108    20724    226387.98   -9.4926516   -39.018006    49.041097   -38.501046    435.23044    23.488986    22.144702   0.42238224    435.65282   -614.72213 
    1000   -103400.47    -94211.56    223.14082    20724    226338.93   -69.466101    -78.85395    -101.1756   -28.368753    435.20767    23.487056    22.142882   0.43376478    435.64144   -698.17971 
    1100   -103286.63   -94199.465    220.66998    20724    226595.44    70.486346    69.134043    170.48231   -28.157317    435.45671     23.49364    22.149089   0.30924352    435.76596    -710.6247 
    1200   -103460.55   -94229.974    224.15254    20724     226401.5   -57.262672    20.425804    45.667328   -237.88115    435.30386    23.487706    22.143495   0.38567007    435.68953   -680.20648 
    1300   -103358.88   -94196.974    222.48501    20724    226483.45    39.457454    23.369265    143.79336   -48.790262    435.43263    23.488483    22.144228   0.32128356    435.75392   -716.64883 
    1400   -103341.34    -94135.44    223.55323    20724     226498.6   -40.772054   -4.2570575   -138.59264    20.533537    435.34501    23.491632    22.147197   0.36509729     435.7101   -772.58256 
    1500    -103314.8   -94101.683    223.72848    20724    226627.57   -2.0849041    123.60253   -287.40727    157.55003    435.37213    23.497587    22.152811   0.35153295    435.72367   -805.22563 
    1600   -103237.18    -94094.42    222.02006    20724     226398.2    92.134105   -11.656253   -154.37137    442.42994    435.04639    23.494484    22.149885   0.51440449     435.5608   -823.97993 
    1700    -103235.4   -93995.995    224.36701    20724    226556.37   -47.862702    -178.9694   -31.294675    66.675969    435.28563     23.49623    22.151532   0.39478622    435.68041   -911.25691 
    1800   -103243.23   -94048.107    223.29154    20724    226369.15   -15.357617    69.703386   -174.31433    58.538094    435.20389    23.488726    22.144457   0.43565674    435.63954   -867.64409 
    1900   -103288.19   -94026.264    224.91388    20724    226541.89     52.96817    171.41676   -48.426683    35.914431    435.35718    23.493549    22.149003   0.35901121    435.71619   -890.76392 
    2000   -103214.34   -93930.953     225.4349    20724    226446.96    9.6814696   -64.061935    256.57053   -163.46419    435.25027     23.49151    22.147082   0.41246425    435.66274   -986.98025 
    2100   -103252.85   -93938.838     226.1787    20724    226542.68    11.604607   -2.2222739    160.51213   -123.47604    435.31483    23.494732    22.150119   0.38018256    435.69502   -975.17281 
    2200   -103183.15    -93955.43    224.08305    20724    226509.96    53.894335   -45.347871     304.0641   -97.033224     435.2696    23.494256    22.149671   0.40279987     435.6724    -965.0532 
    2300   -103164.97   -93943.325    223.93554    20724    226486.29    20.640584   -0.2409986    65.015654   -2.8529025    435.33416    23.491287    22.146871   0.37051836    435.70468   -975.06225 
    2400   -103218.55   -93903.449    226.20519    20724    226391.26   -34.742049   -84.078652    74.311347   -94.458842     435.3166    23.486831    22.142671   0.37929781     435.6959   -1017.0063 
    2500   -103203.01   -93856.476    226.96852    20724    226484.42   -48.189211   -56.210323   -109.31344    20.956131    435.33049    23.491289    22.146873   0.37235672    435.70284   -1060.5339 
    2600   -103135.85   -93895.872    224.38072    20724     226463.2     49.48932    29.646117    28.671182     90.15066    435.12382    23.495766    22.151094   0.47569036    435.59951   -1027.2599 
    2700   -103164.68    -93853.75    226.10371    20724    226476.31   -64.431866   -270.86928    65.991451    11.582228     435.1415    23.495969    22.151285   0.46685033    435.60835   -1063.2075 
    2800   -103118.72   -93792.199    226.48238    20724    226685.57   -34.096786   -36.999408    21.228795   -86.519743    435.53709    23.496143     22.15145   0.26905382    435.80615   -1123.1392 
    2900   -103119.45   -93840.077    225.33752    20724    226665.65     114.9827    82.712287    183.78519    78.450634    435.30386    23.501404     22.15641   0.38567221    435.68953   -1083.2306 
    3000   -103110.58    -93814.53     225.7424    20724     226569.4     3.255311    165.60275    4.1099336   -159.94675    435.47525     23.49179    22.147345   0.29997297    435.77523   -1107.1799 
    3100   -103168.47   -93776.425    228.07353    20724    226609.96     45.09537   -95.182735    39.176783    191.29206     435.2398    23.500246    22.155317   0.41769989     435.6575   -1148.5036 
    3200   -103170.19   -93754.457    228.64887    20724    226750.95   -56.806636   -209.56669    -75.96237    115.10915    435.31495    23.505526    22.160296   0.38012731    435.69507   -1163.0573 
    3300      -103048   -93746.453    225.87586    20724    226639.05    88.951855    212.13947   -57.305053    112.02115    435.28884     23.50043    22.155491   0.39318163    435.68202   -1180.1462 
    3400   -103085.11   -93708.691    227.69419    20724    226560.76   -14.728034   -69.067027    77.585968   -52.703044    435.28958    23.496351    22.151646   0.39280945    435.68239   -1216.5792 
    3500   -103100.74   -93724.689    227.68521    20724    226584.69   -76.299349   -105.37254    151.19851   -274.72401    435.38222    23.495092    22.150459   0.34649125    435.72871   -1195.1361 
    3600    -103032.5   -93671.205    227.32684    20724    226521.59    54.322546    155.22995   -52.893264     60.63095    435.39431    23.491494    22.147066   0.34044409    435.73476   -1257.8704 
    3700   -102955.94   -93675.563    225.36187    20724    226437.57    45.150551   -88.115652   -80.816196     304.3835    435.23844    23.491343    22.146924   0.41838014    435.65682   -1256.5789 
    3800   -103080.13   -93659.424    228.76966    20724     226570.1    25.680474    44.624591    136.96898   -104.55215    435.26679    23.497451    22.152682   0.40420599    435.67099   -1270.5265 
    3900   -103013.62       -93617    228.18457    20724    226445.49    52.692505    19.048965    272.23493   -133.20638    435.15928     23.49389    22.149325   0.45796033    435.61724   -1317.1591 
    4000   -102974.66   -93617.083     227.2365    20724    226623.22    41.085829   -26.642361     -7.56206    157.46191    435.53904    23.492859    22.148353   0.26808097    435.80712   -1312.6208 
    4100   -102944.62   -93563.029    227.81978    20724     226483.4    74.219725     98.06657    106.20532     18.38729    435.31043    23.491777    22.147333   0.38238581    435.69281   -1373.6702 
    4200   -103000.83    -93581.96    228.72497    20724    226691.81    -58.39407   -135.48977   -48.354735    8.6622967    435.11888    23.507755    22.162397   0.47815869    435.59704   -1343.4773 
    4300   -102905.91   -93536.268    227.52966    20724    226469.95   -19.242341    71.849679   -194.28169    64.704991    435.11697    23.496301    22.151598   0.47911692    435.59608   -1397.8616 
    4400   -102957.39   -93495.983    229.75791    20724    226493.79    33.830791    182.70506   -55.982145   -25.230538    434.99022    23.500961    22.155991   0.54249148    435.53271   -1440.7753 
    4500   -102962.61   -93459.768     230.7641    20724    226651.42    16.048158    121.08585    70.187194   -143.12857     435.2111    23.503171    22.158075   0.43204983    435.64315    -1473.746 
    4600   -102966.79   -93501.386    229.85492    20724    226431.16    20.335598     127.8435    2.2697511   -69.106452     435.3071    23.489157    22.144863   0.38404769    435.69115   -1441.2696 
    4700   -102946.01   -93449.341    230.61434    20724    226556.55   -104.33309   -122.87817    -111.8453   -78.275793    435.22128    23.497976    22.153178   0.42695911    435.64824   -1484.7096 
    4800   -102951.91   -93486.385     229.8579    20724    226575.42   -24.362635   -83.211641    95.996008   -85.872271    435.26885    23.497671     22.15289     0.403173    435.67203   -1450.5944 
    4900   -102890.51   -93430.647    229.72034    20724    226739.71   -3.9255424    92.553413    88.609727   -192.93977     435.3736     23.50336    22.158254   0.35080066     435.7244   -1502.9372 
    5000   -102861.41   -93427.766     229.0837    20724    226753.82    80.130435    74.055888    175.46329    -9.127872    435.36832    23.504235    22.159078   0.35344141    435.72176   -1509.8387 
    5100   -102900.88   -93428.205    230.03152    20724     226893.7    8.8779211    26.348879    274.13273   -273.84785    435.49268    23.508126    22.162746   0.29125956    435.78394   -1503.8984 
    5200   -102816.75   -93386.725    228.99583    20724     226811.6    78.665085    50.452873    298.36147   -112.81909    435.63764    23.499961    22.155049   0.21877756    435.85642    -1552.108 
    5300    -102888.4   -93323.581    232.26921    20724    226780.16   -24.786237    34.134433    12.940438   -121.43358    435.38126     23.50525    22.160035   0.34697147    435.72823   -1612.2156 
    5400   -102790.74   -93335.386    229.61102    20724    226829.66    50.591946    45.741961    13.554799    92.479078    435.41229    23.506978    22.161664   0.33145586    435.74374   -1601.6549 
    5500    -102704.3   -93306.456    228.21433    20724    226628.52     149.7726    225.62397     286.6241   -62.930271    435.12506    23.504307    22.159146   0.47506759    435.60013   -1642.8696 
    5600   -102744.64   -93274.254    229.97588    20724    226732.66   -31.676897   -129.91553    -277.6584    312.54324    435.39264    23.502481    22.157425    0.3412811    435.73392   -1662.2584 
    5700   -102938.47   -93281.384    234.50987    20724    226604.96    11.284492   -131.98034    14.684386    151.14943    435.09619    23.503865    22.158729   0.48950411     435.5857   -1665.1439 
    5800   -102786.39   -93256.614    231.41822    20724    226672.71   -25.151039   -170.96662    285.02869   -189.51518    435.13524    23.506323    22.161047   0.46997947    435.60522   -1686.1276 
    5900   -102774.82    -93265.23    230.92811    20724    226510.62    16.033952    122.37197   -25.718475   -48.551643     435.1127    23.498526    22.153696   0.48124896    435.59395   -1682.5927 
    6000   -102764.56   -93190.842    232.48518    20724    226675.74   -80.683188    -78.63836   -327.94151    164.53031    435.20029    23.504723    22.159539   0.43745307    435.63775   -1748.9704 
    6100   -102816.27    -93230.59    232.77562    20724     226644.1   -49.568301    2.0083961   -48.414606   -102.29869    435.30302     23.50031    22.155378   0.38609046    435.68911    -1712.167 
    6200   -102764.96   -93204.923    232.15305    20724    226766.49     8.927567   -176.19923   -21.572367     224.5543     435.2481    23.508137    22.162757   0.41354939    435.66165   -1738.3984 
    6300   -102771.95   -93197.207     232.5101    20724    226618.46    11.395334    18.087554   -61.617523    77.715971    435.17095    23.502546    22.157486   0.45212637    435.62307   -1752.3578 
    6400   -102770.88   -93142.454    233.81386    20724    226728.88   -49.078244    49.769797   -209.43398    12.429446    435.50141     23.49935    22.154473   0.28689503     435.7883   -1800.9478 
    6500   -102659.44   -93118.142    231.69792    20724    226853.62    20.270199   -182.48644   -9.0430691     252.3401    435.42181    23.507962    22.162592   0.32669376    435.74851   -1826.3443 
    6600   -102637.24    -93134.14    230.77028    20724    226746.52    26.275562   -75.900691     5.136794    149.59058    435.58992    23.497876    22.153084   0.24263804    435.83256   -1814.0149 
    6700   -102657.86   -93112.281    231.80203    20724    226657.58    24.921755   -29.841506   -360.15926    464.76603    435.37401    23.499093     22.15423   0.35059479    435.72461   -1838.8816 
    6800   -102707.95   -93107.449    233.13568    20724    226733.43    60.292194    184.07621   -191.56725    188.36762     435.5334    23.498723    22.153881   0.27090155     435.8043   -1845.6702 
    6900   -102627.17   -93088.654    231.63055    20724    226567.89    1.5766435   -70.655962     242.8955   -167.50961    435.35697    23.494902     22.15028   0.35911461    435.71609   -1867.5136 
    7000   -102628.97   -93040.854    232.83493    20724    226603.89   -30.166836    96.923682    -172.8799   -14.544289    435.30732    23.498109    22.153302    0.3839378    435.69126   -1912.6058 
    7100   -102634.59   -92988.462    234.24356    20724    226633.94   -14.683589   -27.625717   -38.835269    22.410218    435.43756    23.496152    22.151458   0.31882101    435.75638   -1964.1467 
    7200   -102567.29   -92995.923    232.42807    20724     226631.3    90.128615    195.01538    66.490652    8.8798175     435.3281    23.498969    22.154114   0.37355081    435.70165   -1964.7283 
    7300   -102621.78   -92983.895    234.04351    20724    226722.58   -37.166473   -43.195358    95.704509   -164.00857    435.59859    23.496402    22.151694    0.2383041     435.8369    -1971.147 
    7400   -102601.41   -92960.618    234.11415    20724    226729.95   -84.656902      -93.331   -74.333451   -86.306256    435.46783    23.500312    22.155379    0.3036825    435.77152   -1991.9979 
    7500   -102592.19   -92959.908    233.90754    20724    226693.45    31.299809    11.779642   -60.130458    142.25024    435.40922    23.500002    22.155087   0.33299146    435.74221    -1998.669 
    7600    -102567.3   -92930.698    234.01227    20724    226688.59   -51.865442    100.76529     -364.084    107.72238    435.42946    23.499203    22.154335   0.32286843    435.75233   -2023.9489 
    7700   -102580.49   -92948.177    233.90828    20724    226537.52   -16.938344    10.031784   -151.51185    90.665037     435.4256    23.491476    22.147049   0.32479822     435.7504   -2013.0175 
    7800    -102530.1   -92951.626    232.60082    20724    226753.55    33.259693   -48.292184    294.70865   -146.63739    435.27282    23.506799    22.161495   0.40118821    435.67401   -2009.0027 
    7900   -102590.41   -92928.354    234.63033    20724    226562.88    13.585292   -239.18324    150.43952     129.4996    435.28112     23.49669    22.151965   0.39704136    435.67816   -2037.2733 
    8000   -102560.42   -92915.031    234.22573    20724    226572.01    27.333693    172.08789    92.824865   -182.91168    435.04716     23.50348    22.158367   0.51401996    435.56118   -2052.1484 
    8100    -102559.9   -92912.799    234.26739    20724     226580.3   -43.127521    90.885817   -186.95859   -33.309792    435.11299    23.502133    22.157096   0.48110721    435.59409   -2051.0728 
    8200   -102509.35   -92878.203    233.87987    20724    226768.79    70.615715    14.666196   -5.7372856    202.91823    435.34666    23.505595     22.16036   0.36427174    435.71093   -2085.8018 
    8300   -102487.03   -92877.051    233.36594    20724    226474.91   -27.087927   -122.80405   -64.439259    105.97952    435.03982    23.498642    22.153805   0.51768834    435.55751   -2092.6038 
    8400   -102416.02   -92830.395    232.77441    20724    226663.62   -29.541626    93.228977    -173.7929   -8.0609515    435.25689    23.502567    22.157506   0.40915298    435.66605   -2133.7092 
    8500   -102532.08   -92804.296    236.22646    20724    226622.27   -1.5140247   -146.29374   -100.71814     242.4698    435.02095    23.506795    22.161492   0.52712698    435.54807   -2167.9789 
    8600   -102361.28   -92762.027    233.10531    20724    226487.98    41.546096    124.20558    -25.08938    25.522091    435.12884    23.496916    22.152178   0.47318142    435.60202   -2212.6072 
    8700   -102404.91   -92761.062    234.18834    20724    226598.93    15.024656    -132.7647    21.084781    156.75388    435.10822    23.503227    22.158128   0.48349157    435.59171   -2211.5183 
    8800   -102455.71   -92781.226    234.93213    20724    226694.93    22.527342   -33.837775    204.29637   -102.87657    435.19567    23.505843    22.160594   0.43976378    435.63544   -2189.9973 
    8900   -102413.53   -92770.481    234.16887    20724    226569.33   -10.554339     106.5359    -44.49488   -93.704036    435.04759     23.50333    22.158225   0.51380708    435.56139   -2203.9828 
    9000   -102408.46   -92726.729    235.10816    20724     226640.8  0.029840137     79.88165   -123.93944     44.14731    435.00371    23.508222    22.162837   0.53574543    435.53945   -2247.6598 
    9100   -102376.44   -92702.711    234.91381    20724    226717.02    3.6962545   -2.9146571    123.92729   -109.92386    435.23647    23.505887    22.160636   0.41936701    435.65583   -2268.6657 
    9200   -102395.03   -92696.917      235.506    20724    226707.65    5.9812616    64.948975   -174.17096    127.16577    435.28505    23.504089    22.158941   0.39507518    435.68012    -2275.373 
    9300   -102292.93   -92680.504    233.42518    20724    226832.54   -34.997319    5.0321477    30.654503   -140.67861    435.21446    23.512469    22.166841   0.43036875    435.64483   -2286.3446 
    9400   -102325.71   -92689.488    234.00315    20724    226648.47    70.412537    167.18499    219.25004   -175.19742    435.13063    23.505191    22.159979   0.47228707    435.60291   -2290.2597 
    9500   -102380.16   -92650.323     236.2764    20724    226575.86     8.508781    79.713415   -3.9889149   -50.198158    435.11052    23.501969    22.156942   0.48234074    435.59286   -2329.3932 
    9600   -102438.77   -92663.284    237.38489    20724     226534.9    2.2499606   -106.37449    -107.4034    220.52778    434.98683    23.503185    22.158088   0.54418738    435.53101   -2318.9281 
    9700   -102339.86   -92651.069    235.27975    20724    226431.88   -16.700436   -25.155666    79.999224   -104.94487    434.94512    23.498967    22.154112   0.56503756    435.51016   -2334.5212 
    9800   -102325.55   -92639.549    235.21189    20724    226404.64    13.882021    -70.93438    20.757938    91.822506    434.90716    23.498579    22.153746   0.58402084    435.49118   -2348.9713 
    9900   -102389.56    -92636.82     236.8325    20724    226441.64   -92.948363   0.43820989   -79.613186   -199.67011    434.93008     23.49988    22.154972   0.57255982    435.50264   -2347.2988 
   10000   -102246.94   -92600.762    234.24479    20724    226380.15    56.166643    130.46654   -176.48894    214.52233    434.88702    23.497852    22.153061   0.59409196    435.48111   -2392.4091 
   10100    -102252.6   -92614.593    234.04643    20724    226390.31    40.998058    8.1057936    90.687948    24.200432    434.92984    23.497223    22.152467   0.57267946    435.50252   -2377.8052 
   10200   -102337.53    -92604.64    236.35058    20724    226395.35    21.250769    169.07393    28.488784    -133.8104     434.7318    23.502836    22.157759   0.67170173     435.4035   -2389.0406 
   10300   -102314.67    -92607.37    235.72918    20724    226326.72   -8.4522097     60.76566    121.13403   -207.25632    434.85917    23.495831    22.151155   0.60801271    435.46719   -2387.7381 
   10400   -102222.81   -92579.382    234.17806    20724    226535.91   -21.065565   -18.879582   -58.105928    13.788817    435.02279    23.502266    22.157222   0.52620381      435.549   -2407.5935 
   10500    -102255.9   -92588.954     234.7491    20724    226302.07   -27.194043   -195.18028    80.433826    33.164324    434.74159    23.497728    22.152944   0.66680261     435.4084   -2407.4765 
   10600   -102309.57   -92573.078    236.43812    20724    226332.73   -23.520196   -26.998446     104.4402   -148.00235    435.03729    23.491332    22.146914   0.51895284    435.55625   -2421.3552 
   10700   -102181.95   -92578.024    233.21891    20724    226359.42    17.300426    54.393184   -157.82894    155.33703    435.04129     23.49261    22.148118   0.51695325    435.55825   -2419.9288 
   10800   -102214.29   -92557.844    234.49432    20724    226395.44    20.144156     1.718623    -146.4895    205.20335    435.01292    23.495245    22.150603   0.53114109    435.54406   -2439.3831 
   10900   -102261.39   -92477.771    237.58247    20724    226328.19   -90.744811   -67.133504   -74.137153   -130.96378    434.79372    23.497676    22.152895   0.64074246    435.43446   -2517.5415 
   11000   -102310.24   -92494.125    238.37165    20724    226415.89    38.050816    53.754611    157.00963   -96.611789    434.90226    23.499295    22.154421   0.58647161    435.48873   -2507.1249 
   11100   -102209.61   -92518.164    235.34406    20724    226382.39    24.267426    39.359356     111.5613   -78.118381    434.87249    23.498361     22.15354   0.60135266    435.47385   -2482.6574 
   11200   -102268.82   -92533.639    236.40625    20724    226299.56   -7.5065309   -81.704615   -90.417126    149.60215      434.489    23.504427     22.15926   0.79309942     435.2821   -2468.9229 
   11300   -102260.03   -92527.509    236.34169    20724    226389.87    8.3804429    9.7208769   -134.78489    150.20534    434.46907    23.509656    22.164189   0.80306432    435.27214   -2474.7742 
   11400    -102327.4   -92489.073    238.91089    20724    226350.66   -96.308017   -115.57707    30.381101   -203.72808    434.70485    23.501244    22.156259   0.68517374    435.39003   -2509.4973 
   11500   -102186.95   -92406.181    237.51329    20724    226457.36    -1.548888   -110.60809    30.210556    75.750872    434.88484    23.501918    22.156893   0.59517761    435.48002   -2594.6367 
   11600   -102119.26   -92441.164    235.01988    20724    226518.82    34.855242    3.0017426    150.76168   -49.197693     434.8603     23.50577    22.160525    0.6074479    435.46775   -2562.4458 
   11700   -102175.58   -92448.577    236.20764    20724    226519.18   -29.689286    116.88191   -56.113695   -149.83607     434.7843    23.507843     22.16248   0.64544993    435.42975   -2554.0269 
   11800   -102154.36   -92395.677    236.97694    20724    226519.73   -26.423685    102.18458   -216.67886    35.223225     434.8205    23.506893    22.161584   0.62735207    435.44785   -2607.5926 
   11900   -102224.21   -92421.361    238.04946    20724    226398.29    26.341806    30.564962   -171.94361    220.40407    434.93508    23.497495    22.152724   0.57005995    435.50514   -2589.6543 
   12000   -102211.57   -92418.374    237.81495    20724    226255.72    3.4052113    46.203139    35.364312   -71.351817    434.50664    23.501674    22.156664   0.78428062    435.29092   -2595.3943 
   12100   -102091.22    -92406.86    235.17216    20724     226345.6    14.958921   -65.045724   -148.40958    258.33207    434.86909    23.496543    22.151827     0.603055    435.47215   -2606.2874 
   12200   -102201.25    -92419.27    237.54267    20724    226340.76   -21.837681   -137.32556   -170.00038     241.8129    434.80439     23.49804    22.153238   0.63540307     435.4398   -2592.8436 
   12300   -102135.18   -92412.605    236.10001    20724    226327.71   -43.911824   -131.57836    43.404656   -43.561769    434.67368    23.500896     22.15593   0.70076015    435.37444   -2599.5561 
   12400   -102108.52   -92371.467    236.45159    20724    226402.01     -34.2709     17.61334    335.58417   -456.01021    434.62473    23.506076    22.160814   0.72523653    435.34996   -2640.8649 
   12500    -102054.8   -92307.753    236.69432    20724     226479.5     4.275924    4.2997363     395.1353   -386.60726    434.83273    23.504475    22.159304   0.62123689    435.45396   -2704.2498 
   12600   -102061.16   -92321.188    236.52254    20724    226329.73    6.1558922    142.55691    72.711176   -196.80041    434.60057    23.502977    22.157892   0.73731427    435.33789   -2697.1435 
   12700   -102065.03   -92255.342    238.21541    20724    226438.85    61.501154    71.720521    217.60429   -104.82135    434.80187    23.503199    22.158102   0.63666543    435.43853   -2762.1685 
   12800   -101993.83   -92243.347    236.77782    20724    226433.67    37.507833   -38.723919    198.61397   -47.366548    434.57339    23.509108    22.163673   0.75090712    435.32429   -2775.6228 
   12900   -102110.09   -92242.228    239.62813    20724    226552.69   -42.877854   -137.70331     -64.4855    73.555245    434.52534    23.516586    22.170722   0.77493168    435.30027   -2770.7803 
   13000   -102057.39   -92210.724    239.11336    20724    226529.46   -47.390465    -86.73844   -215.77955     160.3466    434.64833    23.512053    22.166449   0.71343664    435.36176   -2804.1187 
   13100   -102091.01   -92207.217    240.01511    20724    226561.92   -31.190025   -20.549756   -216.83942     143.8191    434.81025    23.509359    22.163909   0.63247289    435.44273   -2807.9597 
   13200   -101909.79   -92176.363    236.36351    20724    226393.32    57.270071   -98.000257    317.72577   -47.915301    434.37585    23.512358    22.166736   0.84967713    435.22552   -2845.3924 
   13300   -101958.55   -92158.523    237.98095    20724    226709.07    24.518485   -58.855655    170.90557   -38.494461     434.7354    23.519016    22.173014   0.66989801     435.4053   -2856.1328 
   13400   -101999.25   -92128.243    239.70445    20724    226635.92   -71.565315    63.994652   -110.27543   -168.41516    434.73704    23.515178    22.169395   0.66908207    435.40612   -2884.8923 
   13500   -101932.08   -92165.901    237.15887    20724    226376.45    72.919098    92.070358    62.975368    63.711567    434.53951    23.507054    22.161736   0.76784309    435.30736   -2862.3586 
   13600   -101978.41   -92115.233    239.51441    20724    226414.64    16.248688    76.534657   -253.38463    225.59604    434.40763    23.512605    22.166969   0.83378692    435.24141   -2911.3133 
   13700   -101953.11   -92137.509    238.35899    20724     226361.3   -16.576417    83.632732   -115.07991   -18.282078    434.63197    23.503767    22.158637    0.7216155    435.35358   -2888.7934 
   13800   -101929.61   -92114.523     238.3467    20724    226542.65    48.236344    16.561153    106.14844    21.999442    434.72659    23.510621    22.165099   0.67430517    435.40089   -2911.0071 
   13900   -101952.71   -92128.969    238.55681    20724    226322.54    40.695253    23.272691   -66.890627     165.7037    434.50366    23.505224    22.160011   0.78576778    435.28943   -2903.9912 
   14000    -101978.8   -92100.592     239.8794    20724    226348.58   -52.488284    -203.2707    92.768957   -46.963112    434.38137    23.509885    22.164405    0.8469162    435.22828   -2927.7473 
   14100   -101928.68    -92131.38    237.91469    20724    226305.92    2.9849971    116.35514    51.254456   -158.65461      434.545    23.503243    22.158143   0.76509875     435.3101   -2900.0855 
   14200   -101988.17   -92079.913    240.60901    20724    226273.11   -56.708318   -251.88663   -40.150264    121.91194    434.64599    23.498809    22.153963   0.71460624    435.36059   -2953.1225 
   14300   -101941.05   -92117.599    238.54979    20724    226331.89   -35.918167   -111.84815   -126.76383    130.85748    434.45129    23.507126    22.161804   0.81195471    435.26325   -2914.1481 
   14400    -101900.5   -92103.051    237.91831    20724    226255.35   -16.393374    -70.11232   -11.149001    32.081199    434.31962    23.506714    22.161415   0.87779166    435.19741   -2932.4325 
   14500   -101985.31    -92092.62    240.23105    20724    226475.79    56.178712    134.97947    194.47344   -160.91678    434.67758    23.508477    22.163077   0.69881077    435.37639   -2942.2781 
   14600   -101929.36   -92072.191    239.36854    20724    226421.37   -77.147639   -99.986799    162.03546   -293.49158    434.57047    23.508549    22.163145   0.75236638    435.32283   -2957.2234 
   14700   -101937.29   -92107.799    238.69648    20724    226335.79    2.9183679   -51.750479   -254.15303    314.65862      434.553    23.504578    22.159401   0.76110173     435.3141   -2930.2088 
   14800   -101991.04   -92102.404    240.13259    20724    226351.55   -44.829284   -13.918555   -115.32978   -5.2395193    434.37681    23.510163    22.164667   0.84919552      435.226   -2932.9094 
   14900   -102042.46   -92123.608    240.86628    20724     226311.4   -94.373548   -126.22278    59.491414   -216.38928    434.16786    23.513734    22.168033   0.95366998    435.12153   -2913.1069 
   15000   -101911.08   -92122.666    237.69894    20724    226185.69   -78.724197     -45.2785   -180.75297   -10.141118    434.36545    23.501855    22.156834   0.85487497    435.22033   -2918.9067 
   15100   -101985.01   -92081.115     240.5032    20724    226487.96   -26.093924   -60.411667   -132.75092    114.88081    434.65311     23.50977    22.164297   0.71104726    435.36415   -2954.9575 
   15200    -101957.5   -92074.697    239.99087    20724    226470.04    -17.50573   -155.16099   -89.620828    192.26463    434.34457    23.517188     22.17129   0.86531584    435.20988   -2964.3639 
   15300   -101886.01   -92060.135     238.6086    20724    226284.16    29.534978    174.24514     -66.4457   -19.194509    434.29719    23.508817    22.163398   0.88900528    435.18619   -2984.1984 
   15400   -101922.18   -92046.892    239.80842    20724    226494.17   -34.080281   -153.89779     50.12043    1.5365171    434.20883    23.522117    22.175937   0.93318591    435.14201   -2991.9579 
   15500   -101941.66   -92084.491    239.36856    20724    226385.71    16.834935    145.61678   -30.053173     -65.0588    434.17475    23.517407    22.171496   0.95022364    435.12498   -2960.8878 
   15600   -101832.58   -92058.188    237.35834    20724    226409.23   -2.4947536   -2.5188997   -201.93264    196.96728    434.35176    23.513836     22.16813   0.86171815    435.21348   -2983.8119 
   15700   -101927.45   -92014.278    240.72843    20724    226304.95   -37.358732    -98.81548    93.552813   -106.81353    433.98182    23.518438    22.172468    1.0466925    435.02851   -3033.4057 
   15800    -101888.5   -91994.479    240.26337    20724    226304.04   -84.098487   -190.09574   -64.804643    2.6049242    433.96466    23.518856    22.172862    1.0552701    435.01993   -3050.3971 
   15900   -101935.83   -92016.286    240.88311    20724    226400.05   -44.612588   -146.56556    3.0603949       9.6674    434.40429    23.511938     22.16634   0.83545609    435.23974   -3031.5395 
   16000   -101896.58   -91931.834    241.98099    20724    226057.52    18.988837   -1.9089133    44.476517    14.398907    433.97272    23.505824    22.160576    1.0512409    435.02396   -3127.0148 
   16100    -101789.8   -91935.941    239.28803    20724    226116.28   0.65349381    25.620854     206.8739   -230.53427    434.03671    23.507146    22.161822    1.0192451    435.05595   -3120.8808 
   16200   -101808.81   -91929.677    239.90186    20724    226213.45   -55.583345    -143.4873    85.936402   -109.19913    434.00035    23.513181    22.167513    1.0374266    435.03777   -3123.3171 
   16300   -101896.43   -91921.481    242.22864    20724    226138.12    -57.50423   -9.6031657   -62.572511   -100.33701    434.26841    23.502009    22.156979   0.90339714     435.1718   -3134.2594 
   16400   -101894.25   -91921.643    242.17175    20724    226224.31   -47.914439   -195.32421      25.1907    26.390191    434.35551     23.50413    22.158979    0.8598453    435.21535   -3135.4145 
   16500   -101783.72   -91879.241    240.51725    20724    226187.36    19.191216    49.646537   -387.67144    395.59855     434.0515     23.51044    22.164928    1.0118485    435.06335   -3180.3725 
   16600   -101724.38   -91894.155    238.71419    20724    226109.95    90.035416   -119.68931    38.554962     351.2406     433.9914    23.508044    22.162669    1.0418998     435.0333   -3172.0018 
   16700   -101778.58   -91886.339    240.22023    20724    226300.91    -41.64526   -158.24838   -115.96981     149.2824    434.07776    23.515629     22.16982   0.99872042    435.07648   -3168.8118 
   16800    -101784.5   -91881.201    240.48861    20724    226371.95    67.385013    1.3912493    18.281207    182.48258    434.18965    23.516289    22.170442    0.9427747    435.13243   -3177.5822 
   16900    -101842.6   -91902.187    241.38998    20724    226258.79   -5.0620062    34.438805    76.791215   -126.41604    434.08977    23.513115     22.16745    0.9927151    435.08248   -3161.2583 
   17000   -101843.13   -91880.839    241.92116    20724    226433.09   -25.468628   -200.99146    309.02462   -184.43905    434.27453    23.517166    22.171269    0.9003367    435.17486    -3176.848 
   17100   -101761.31   -91866.494    240.28274    20724     226112.3     40.85884   -4.9786107     346.6073   -219.05217    433.97364    23.508647    22.163237    1.0507794    435.02442   -3205.4224 
   17200   -101890.34   -91835.717     244.1634    20724    226370.43   -73.910847   -99.948656   -7.4916576   -114.29223    434.14869     23.51732    22.171414   0.96325635    435.11194   -3224.3576 
   17300   -101675.04   -91818.033     239.3646    20724    226101.53   -2.6284268    16.917123   -203.32372    178.52131    434.14623    23.503414    22.158304   0.96448643    435.11071   -3251.6088 
   17400   -101673.27   -91796.471    239.84531    20724    226244.99     18.51558   -20.964416     6.741167    69.769991      433.825    23.519572    22.173538    1.1251001     434.9501    -3272.089 
   17500   -101725.68   -91789.025    241.29863    20724    226294.18    21.892946    109.61863   -175.04807    131.10828    434.11778    23.514195    22.168468   0.97870757    435.09649   -3279.7917 
   17600    -101684.9   -91788.111     240.3306    20724    226028.39    96.170481     109.0734   -2.4656875    181.90373    433.77146    23.509761    22.164288    1.1518688    434.92333    -3292.269 
   17700   -101657.55   -91769.194    240.12576    20724    226277.64    -2.479308   -133.84742   -6.0435336    132.45303    434.11969    23.513284     22.16761   0.97775661    435.09744   -3300.1187 
   17800   -101683.93   -91743.425    241.39219    20724    226196.33    40.468085    85.869887   -7.0054144    42.539783     434.1115    23.509281    22.163835   0.98184793    435.09335   -3332.5097 
   17900   -101736.39   -91773.833     241.9277    20724    226311.88   -56.491735   -90.782726    13.878119   -92.570597    434.20713    23.512695    22.167054   0.93403725    435.14116   -3294.1339 
   18000   -101717.46   -91773.246     241.4823    20724    226195.22    71.615296     143.8406   -326.69465    397.69993    434.09122    23.509773    22.164299   0.99199191    435.08321   -3305.2566 
   18100   -101627.16   -91797.713    238.69541    20724    226055.33    73.210812    15.952874    28.690243    174.98932     433.9915    23.505202     22.15999    1.0418489    435.03335   -3286.5995 
   18200    -101618.9   -91772.786    239.10015    20724    225999.38    -40.81483    10.358817     64.39853   -197.20184    433.92751    23.504025    22.158881    1.0738429    435.00136   -3308.1063 
   18300   -101784.12   -91770.422    243.16962    20724    226070.81   -66.718732   -208.08971    163.97714   -156.04363    434.07275    23.503806    22.158674     1.001223    435.07398   -3310.5809 
   18400    -101646.2   -91734.932    240.68229    20724    226078.75    81.321228    26.582357     185.8077    31.573629    434.28498    23.498475    22.153648   0.89511132    435.18009   -3352.2496 
   18500   -101587.56   -91731.642    239.33812    20724    226051.71   -55.312392    -11.87978    82.584574   -236.64197    434.02925    23.503991    22.158848     1.022975    435.05223   -3349.0895 
   18600   -101703.92   -91720.194    242.44166    20724    226140.18    17.832358   0.51500193    47.290459    5.6916117    434.05195    23.507975    22.162604    1.0116246    435.06358   -3366.2552 
   18700   -101669.57   -91700.013    242.09765    20724    226018.89    14.684935   -66.004461   -136.23953    246.29879    434.33463    23.494021    22.149449   0.87028713    435.20491   -3388.2827 
   18800   -101728.84   -91684.364    243.91704    20724    226125.11    19.286462   -200.95695   -46.584511    305.40085    434.10743     23.50569     22.16045   0.98388738    435.09131   -3402.9674 
   18900   -101779.54   -91687.127      245.081    20724    226114.16    -107.8222   -237.98408    42.098939   -127.58145    434.34866    23.498593    22.153759   0.86327178    435.21193   -3398.6228 
   19000   -101748.77   -91741.852    243.00493    20724    226269.27     56.00799     66.62058    28.602719    72.800673    434.32264    23.507355     22.16202   0.87628046    435.19892   -3347.0805 
   19100   -101686.73   -91715.456    242.13933    20724    226229.45   -3.8877669    39.536345   -74.228692    23.029046    434.20833     23.50838    22.162986   0.93343605    435.14176    -3372.967 
   19200   -101640.33   -91695.787    241.49027    20724    226023.39    45.950236    21.956629    218.57845   -102.68437    433.92651    23.505301    22.160083    1.0743465    435.00085   -3400.9894 
   19300   -101653.65   -91669.632    242.44884    20724    226164.62    50.270067   -57.823194    194.89368    13.739711    434.15859    23.506358     22.16108   0.95830672    435.11689   -3425.0138 
   19400    -101582.5   -91650.884    241.17641    20724    226275.72    -66.34007    38.156814   -137.73898   -99.438047    434.24725    23.509731     22.16426   0.91397621    435.16122   -3436.2213 
   19500   -101594.33   -91584.691    243.07106    20724    226308.76    8.5093502    200.26334   -4.3977398   -170.33755    434.21178    23.512407    22.166783   0.93170872    435.14349   -3505.6875 
   19600   -101626.96   -91608.005    243.29728    20724    226229.91    6.8340972    19.870207   -140.75413    141.38621    434.51413     23.50013    22.155209   0.78053617    435.29466   -3485.8847 
   19700    -101547.4   -91602.154    241.50734    20724    226521.08    126.73042    88.450793    291.10352   0.63695327    434.41461    23.517942    22.172001   0.83029682     435.2449   -3489.3409 
   19800   -101626.98   -91570.241    244.21486    20724    226512.38   -30.098048    31.273773   -31.764915   -89.803003    434.36664    23.518789    22.172799   0.85427946    435.22092   -3515.5782 
   19900   -101593.19   -91571.658    243.35987    20724    226351.34   -7.7000652    54.114805   -163.06259    85.847588    434.56348    23.505102    22.159896   0.75586207    435.31934   -3521.5224 
   20000   -101587.16   -91608.929    242.30833    20724    226311.79    49.285021    26.993497    132.89981    -12.03824    434.58475    23.502473    22.157417   0.74522735    435.32997   -3488.9678 
   20100   -101617.51     -91624.4    242.66969    20724    226388.72    103.15174    64.444209   -26.203748    271.21477    434.36402    23.512439    22.166813   0.85558993    435.21961   -3473.6356 
   20200   -101657.77   -91618.732    243.78498    20724    226408.57   -62.426196     30.88845     -131.056   -87.111042    434.29414    23.515362    22.169568   0.89053023    435.18467   -3474.0465 
   20300   -101559.18   -91597.937     241.8959    20724    226370.29    83.470808    191.71726    65.695408   -7.0002402    434.49479    23.507943    22.162574   0.79020321      435.285   -3502.5991 
   20400   -101530.07   -91562.172    242.05732    20724    226545.66    53.588082    36.461982    170.31211   -46.009845    434.54718     23.51563    22.169821   0.76401238    435.31119   -3533.4407 
   20500   -101662.15   -91547.558    245.61972    20724    226670.78   -8.6049347    159.10426    31.124416   -216.04348    434.82411    23.514631    22.168879    0.6255439    435.44966   -3544.0312 
   20600   -101623.21   -91553.101    244.53936    20724    226515.75   -13.368221   -35.532882   -11.572964    7.0011812     434.6952    23.510074    22.164583    0.6900013     435.3852   -3542.2904 
   20700   -101575.43   -91556.299    243.30147    20724     226560.6   -24.589714    11.869315   -148.53382    62.895366    434.89058    23.507119    22.161797   0.59230892    435.48289   -3538.2957 
   20800   -101490.91   -91552.099    241.35096    20724    226562.85    60.024281   -111.43963    314.20619   -22.693715    434.76842    23.510538    22.165021    0.6533897    435.42181   -3545.1955 
   20900   -101620.75   -91557.884    244.36352    20724    226393.46   -66.282831    94.131639   -103.27999   -189.70015    434.75944    23.501991    22.156962   0.65787977    435.41732   -3542.0506 
   21000   -101676.12   -91579.286    245.18835    20724    226637.58   -30.251662    69.815063   -164.88706     4.317015    434.71422    23.515881    22.170058    0.6804892    435.39471   -3517.3056 
   21100   -101546.97   -91570.449    242.26678    20724    226574.35    -15.53818    5.4795495   -154.78102    102.68693    434.87518    23.508249    22.162862   0.60001224    435.47519   -3529.0054 
   21200   -101506.13   -91527.906    242.30809    20724    226479.72    10.538827    24.651285    -141.8106    148.77579    434.80515    23.505231    22.160018   0.63502319    435.44018   -3575.2594 
   21300   -101533.51   -91546.428    242.52325    20724    226458.84   -19.789737    -69.80645    197.18274    -186.7455    434.80372    23.504187    22.159033   0.63574162    435.43946   -3556.7401 
   21400   -101570.87   -91559.227    243.11972    20724    226412.77    35.076182     -5.63757    358.49099   -247.62487    434.64074    23.506202    22.160932   0.71722928    435.35797   -3549.5124 
   21500   -101559.75   -91548.877    243.10098    20724    226515.48    27.822254     24.46953   -110.46857     169.4658    434.46839    23.516196    22.170355   0.80340666    435.27179   -3558.1223 
   21600   -101510.73   -91552.705    241.81769    20724    226457.25   -37.289294   -104.15177   -215.89063    208.17452      434.468    23.513184    22.167515    0.8036023     435.2716   -3552.7955 
   21700   -101457.67   -91512.713    241.50021    20724    226416.39      80.5626    189.06512    95.967164   -43.344481    434.50386    23.510092      22.1646   0.78567144    435.28953    -3600.906 
   21800   -101548.43   -91549.658    242.80721    20724    226210.23    17.438239    62.565086    109.95454   -120.20491    434.35913    23.503301    22.158197   0.85803603    435.21716   -3568.2783 
   21900   -101481.62   -91494.983    242.51256    20724    226474.26    29.698152    129.82879   -41.952581    1.2182441    434.49607    23.513307    22.167631   0.78956339    435.28564   -3617.9765 
   22000    -101586.5   -91499.667    244.94554    20724    226399.47    64.956016    10.806355     334.4035   -150.34181    434.47689    23.509943     22.16446    0.7991574    435.27604    -3618.818 
   22100   -101488.67   -91479.528    243.05886    20724    226329.68   -54.482348   -57.190878    -348.4439    242.18773    434.47888    23.506265    22.160992   0.79816002    435.27704   -3634.7192 
   22200   -101585.91    -91526.25    244.28581    20724    226325.55    -62.57074   -303.72061    72.232672    43.775714    434.44393    23.506996    22.161682   0.81563599    435.25956   -3588.9968 
   22300   -101479.26   -91504.687    242.21951    20724    226337.67    64.949367    47.618409    48.667721    98.561972    434.14137    23.515816    22.169996    0.9669171    435.10828   -3618.9039 
   22400   -101602.27   -91533.725    244.50155    20724     226343.3    8.3995827   -28.784817   -57.309541    111.29311    434.36412    23.510078    22.164586   0.85553798    435.21966   -3588.5463 
   22500   -101560.84     -91510.4    244.06177    20724    226549.95    36.547211   -27.912031    33.368516    104.18515    434.87176    23.507075    22.161756    0.6017211    435.47348   -3607.0314 
   22600   -101443.15    -91501.89    241.41053    20724    226291.22    37.588519    129.71505    75.960292   -92.909779    434.32694    23.508379    22.162985   0.87412849    435.20107   -3624.3482 
   22700   -101605.89   -91529.411    244.69415    20724    226346.87   -7.3671499    168.70635    96.622625   -287.43042    434.84962    23.497135    22.152385   0.61279123    435.46241   -3595.8703 
   22800   -101501.33   -91439.985    244.32655    20724    226433.65   -55.701599   -101.63099   -152.34334    86.869527    434.55494    23.509606    22.164142    0.7601307    435.31507   -3679.3799 
   22900   -101542.89   -91427.318    245.64339    20724       226335   -74.035677    38.374126   -172.29931   -88.181846    434.41428     23.50829    22.162901   0.83046208    435.24474   -3695.7044 
   23000   -101531.08   -91450.635    244.79056    20724    226463.32    14.939682    152.24106   -5.3571959   -102.06481    434.49666    23.512723    22.167081   0.78927059    435.28593   -3676.1085 
   23100   -101472.44   -91434.355    243.76186    20724    226465.73   -83.421446    46.168757   -101.22358   -195.20952    434.74462    23.506142    22.160876   0.66529242    435.40991   -3686.2672 
   23200   -101551.56   -91416.433    246.11832    20724    226375.64   -64.884231    -181.2698    -79.31759    65.934698    434.59476    23.505517    22.160287   0.74022076    435.33498   -3709.2962 
   23300   -101441.66   -91394.908    243.97225    20724     226570.1   -17.595835   -101.87248    102.88115   -53.796179    434.70683     23.51258    22.166945   0.68418453    435.39102   -3727.0037 
   23400   -101547.16   -91420.564    245.91117    20724     226422.6    57.508472    221.52443    103.02037   -152.01938    434.68138    23.505613    22.160377   0.69690977    435.37829   -3712.5476 
   23500   -101486.09   -91409.763    244.69041    20724    226422.47   -26.373732    106.70555    72.271436   -258.09818    434.40012    23.513215    22.167544   0.83753948    435.23766   -3719.8648 
   23600   -101436.96   -91395.028     243.8552    20724    226275.36   -60.957231    26.619715   -288.16887    78.677463    434.38913    23.505872    22.160622   0.84303364    435.23217   -3737.5281 
   23700   -101464.37   -91356.675     245.4521    20724     226364.4    5.2320411    -60.46817   -20.112294    96.276588     434.4048    23.510073    22.164582    0.8351994       435.24   -3779.2006 
   23800   -101434.39   -91361.373    244.61009    20724    226419.82    -20.35974    44.978008   -142.28637    36.229142    434.66427    23.505932    22.160678   0.70546524    435.36973    -3774.295 
   23900   -101400.93   -91385.575    243.20975    20724    226388.84    108.52885    48.132525    119.42652    158.02752    434.40744     23.51127    22.165711   0.83388066    435.24132   -3757.0975 
   24000   -101532.62   -91352.986    247.19913    20724    226427.91   -23.673585    78.375819   -36.474212   -112.92236    434.58734    23.508432    22.163035   0.74393032    435.33127    -3785.497 
   24100   -101373.09   -91330.728    243.86558    20724    226420.28   -14.961805    105.50906   -57.201066   -93.193412    434.52408    23.509747    22.164275   0.77555986    435.29964   -3806.9597 
   24200   -101453.52   -91324.918    245.95979    20724    226437.23   -8.9777818   -268.48889    64.376269    177.17928    434.31397    23.516313    22.170465   0.88061745    435.19458   -3815.0414 
   24300   -101318.74   -91314.087    242.94993    20724    226159.66    9.3145496   -58.519889   -93.287023    179.75056    433.98943    23.510681    22.165155    1.0428846    435.03232   -3835.1009 
   24400   -101374.91   -91295.184    244.77306    20724    226317.62    55.444207     56.26941    283.43094   -173.36773    434.25834    23.511607    22.166028   0.90842838    435.16677   -3853.4565 
   24500   -101321.69   -91297.817    243.41663    20724    226193.29   -7.1533374     119.0256    84.312929   -224.79854    434.28119     23.50453    22.159356   0.89700588    435.17819   -3852.7898 
   24600   -101202.55   -91269.905    241.20141    20724     226129.6    24.923125   -36.782689   -125.46917    237.02124    434.03152    23.507978    22.162607    1.0218383    435.05336   -3883.4169 
   24700   -101317.25   -91270.565    243.97075    20724    226070.96    18.425909    79.213995    2.6162166   -26.552483    433.97795    23.506381    22.161101    1.0486257    435.02657   -3886.6345 
   24800   -101317.68   -91266.659    244.07585    20724    226058.68    24.928056   -73.614032    29.387194    119.01101    433.83657    23.509572     22.16411    1.1193162    434.95588   -3890.1132 
   24900   -101317.31   -91231.763    244.91441    20724    226333.15    23.820499    -76.34088    358.93462   -211.13224    434.04723    23.518131    22.172179    1.0139858    435.06121     -3920.35 
   25000    -101328.6   -91198.439     245.9978    20724    226180.82   -84.167104   -99.479947   -132.86069   -20.160679    433.87759    23.514811    22.169049    1.0988057    434.97639   -3952.3712 
   25100   -101267.73    -91182.32    244.91095    20724    226392.48    115.79954    228.96351   -158.31834    276.75345    433.99414    23.522652    22.176441    1.0405312    435.03467   -3973.8294 
   25200   -101273.26   -91249.328    243.41823    20724    226278.32     50.21358    81.990872    336.74346   -268.09359    434.02803    23.515802    22.169983     1.023584    435.05162   -3907.3652 
   25300   -101445.23   -91242.844    247.75155    20724    226144.31   -39.444568   -73.926985   -13.388461   -31.018258    434.19257    23.504383    22.159218   0.94131457    435.13389   -3914.2694 
   25400   -101333.03   -91232.638    245.27486    20724     226446.3    5.6853882   -222.63644   -108.76833    348.46093    434.27782    23.517763    22.171832   0.89869009    435.17651   -3920.2609 
   25500   -101321.54   -91199.011    245.81245    20724    226285.93    74.864349    264.49287    -275.8522    235.95238    434.27018     23.50964    22.164174    0.9025093    435.17269   -3965.7755 
   25600   -101322.44    -91215.87    245.42483    20724    226267.59    76.579287    118.87172      209.662   -98.795863    434.07229    23.514046    22.168327    1.0014549    435.07375   -3950.2181 
   25700   -101303.44   -91157.594    246.37861    20724    226332.81    35.794932    -161.9125    200.48501    68.812287    434.40216    23.508504    22.163103    0.8365223    435.23868   -4005.3251 
   25800   -101321.16   -91206.771    245.61476    20724    226087.17   -56.839028   -119.84331   -162.64819    111.97442    434.07956    23.504472    22.159302   0.99782079    435.07738   -3960.2173 
   25900   -101162.92   -91167.999    242.71361    20724    226226.69     5.521922    79.361769   -265.71837    202.92237    434.34062    23.504657    22.159476   0.86729232    435.20791   -3998.7638 
   26000   -101329.07    -91143.84    247.33494    20724    226314.77     101.0611    276.86407   -41.400772    67.720011    434.68824     23.49983    22.154925   0.69348003    435.38172   -4027.8292 
   26100   -101277.53   -91157.423     245.7536    20724     226295.4      47.0149   -134.00114    120.33455    154.71129    434.44774    23.505328    22.160108   0.81373092    435.26147    -4011.888 
   26200   -101223.11   -91143.699    244.76532    20724    226263.98    11.597571   -111.45462     255.6729   -109.42556    434.51257    23.501942    22.156916   0.78131365    435.29389   -4024.9372 
   26300   -101261.85   -91116.424     246.3684    20724    226227.13   -69.297788   -101.10394    121.87143   -228.66086    434.45935    23.501468    22.156469   0.80792628    435.26727   -4050.9136 
   26400   -101252.25    -91132.19    245.75258    20724    226549.41    41.088846    10.117987   -75.423844     188.5724    434.51748    23.516629    22.170763   0.77886211    435.29634   -4033.7263 
   26500   -101191.98   -91107.526    244.88789    20724    226356.79   0.65187294    147.57713    45.046074   -190.66758    434.48192    23.507591    22.162242   0.79664049    435.27856    -4061.882 
   26600   -101273.32   -91092.926    247.21764    20724    226418.16   -13.010243   -138.93811   -1.6449239    101.55231    434.64002    23.506501    22.161215   0.71758905    435.35761   -4075.5722 
   26700   -101321.21   -91086.644    248.53312    20724    226357.77   -48.163648   -102.91637    -280.3787    238.80412    434.51572    23.506727    22.161428   0.77974148    435.29546   -4082.9003 
   26800    -101227.8    -91074.79    246.55259    20724    226281.99   -31.855298   -79.187265   -168.99969    152.62106    434.58271    23.500981     22.15601   0.74624263    435.32896   -4097.5085 
   26900   -101324.16   -91120.207    247.78972    20724    226316.78    30.641986   -47.210431    99.012899    40.123491    434.32488    23.509762    22.164289   0.87516148    435.20004   -4054.4688 
   27000   -101250.22   -91103.888    246.39048    20724    226187.52    6.8355836   -9.4675204   -130.64977    160.62404     434.2577    23.504866    22.159673   0.90874922    435.16645   -4074.7644 
   27100   -101275.97   -91097.923    247.16055    20724    225986.71   -41.020857    124.44282   -270.95796    23.452565    434.03714    23.500398    22.155461    1.0190277    435.05617   -4085.7309 
   27200   -101178.68   -91070.909    245.45411    20724    226085.01   -32.951839   -150.91325    67.487482   -15.429752    434.02327    23.505884    22.160633    1.0259672    435.04923   -4111.4347 
   27300   -101228.57   -91037.448    247.47809    20724    226115.82   -19.860839     55.31494    19.508994   -134.40645    433.93818     23.50979    22.164316    1.0685079    435.00669   -4145.6442 
   27400   -101154.18   -91003.371    246.49906    20724    226155.16     77.39635    76.196707    163.34916   -7.3568135    433.99541    23.510285    22.164782    1.0398936    435.03531   -4182.6102 
   27500   -101138.47   -91006.854    246.03305    20724     226046.4    5.8390919    114.08823   -192.38854    95.817582    434.13267    23.500915    22.155949   0.97126422    435.10394    -4178.833 
   27600   -101257.08   -91028.381    248.39068    20724    226060.13   -12.274218    45.298414   -235.13677     153.0157    434.03102    23.504381    22.159216    1.0220901    435.05311   -4160.1445 
   27700   -101248.27   -91055.462    247.51901    20724    225887.68   -37.998719    88.984572   -170.09942   -32.881309    433.76447    23.502632    22.157567    1.1553647    434.91984    -4137.444 
   27800   -101268.04   -91055.925    247.98789    20724     226101.9   -45.434143   -176.92218   -11.563836    52.183583    433.70033    23.515512     22.16971    1.1874347    434.88777   -4132.4456 
   27900   -101234.33   -91037.534      247.616    20724    225959.52     9.610371    -138.7301   -95.054436    262.61565    433.46395    23.514516    22.168771    1.3056248    434.76958   -4161.7894 
   28000   -101208.88   -91059.985    246.45278    20724    225870.36    11.815065     4.066234   -177.59936    208.97832    433.41498    23.511204    22.165649    1.3301092    434.74509   -4142.1376 
   28100   -101220.96   -91048.774    247.01821    20724    226026.44   -57.722753    -35.58831    216.78598   -354.36593    433.72138    23.511017    22.165472    1.1769089    434.89829   -4145.4275 
   28200   -101205.12   -91034.513    246.97991    20724     225996.3    67.007488    76.761059   -78.827718    203.08912    433.65809    23.511165    22.165612    1.2085567    434.86664   -4168.2913 
   28300   -101181.02    -91018.87    246.77466    20724    226120.91    3.6463852    88.412412    -37.88068   -39.592576    433.76305      23.5148    22.169039    1.1560749    434.91913   -4178.8842 
   28400   -101182.54   -90983.522    247.66976    20724    225972.59    42.588511    179.11592    337.68393   -389.03432    433.71869    23.508289    22.162901    1.1782529    434.89695    -4219.827 
   28500   -101152.58   -90941.775     247.9561    20724    226252.71   -39.739234    12.415734   -131.77839   0.14495553    434.02004    23.514688    22.168933    1.0275806    435.04762   -4248.3848 
   28600   -101119.59    -90930.22     247.4356    20724    226040.83    33.888607    84.594759   -87.038985    104.11005    433.95775    23.505362     22.16014    1.0587229    435.01648   -4273.5405 
   28700   -101047.44    -90935.89    245.54594    20724    226003.93     -29.8795   -192.29407    -8.331418    110.98699    433.73052    23.509599    22.164135     1.172342    434.90286   -4265.2905 
   28800   -101163.51   -90924.679    248.63677    20724    226084.42   -59.424219    105.24608    172.77719   -456.29593    433.97754    23.507092    22.161772    1.0488322    435.02637   -4276.2778 
   28900   -101090.41   -90924.553     246.8645    20724    226124.22    41.147211   -78.862285    -22.80718     225.1111    434.03899    23.507497    22.162153    1.0181049     435.0571   -4280.6346 
   29000   -101149.45   -90905.859    248.75233    20724    226264.65   -100.49602    -85.45683    107.26701   -323.29826    434.01659    23.515402    22.169606    1.0293067    435.04589   -4289.8681 
   29100   -101195.43   -90941.602    249.00073    20724    225991.29    24.728732    140.04642   -215.52157    149.66135    433.99356    23.501816    22.156797    1.0408181    435.03438   -4271.0996 
   29200   -101158.98   -90921.141    248.61268    20724    226132.04   -127.34115   -91.623409   -287.43722   -2.9628295     434.2708    23.501628     22.15662   0.90219997      435.173   -4279.7767 
   29300   -101164.59   -90902.124    249.21071    20724    226120.79    7.2292617    48.642115    193.06304   -220.01737    434.24103    23.501849    22.156829   0.91708561    435.15811   -4307.4155 
   29400   -101083.69   -90890.039    247.53941    20724    226244.96    -8.069697    0.4104152   -267.90477    243.28527    434.35162    23.505308     22.16009   0.86178931    435.21341   -4314.9694 
   29500   -101200.67   -90925.115    249.52859    20724     226093.6   -65.238202   -24.277362    55.877692   -227.31494    434.18106    23.502059    22.157027   0.94707186    435.12813   -4283.7529 
   29600   -101127.13   -90897.989    248.40127    20724    226216.23     86.81883   -59.231886    239.89657    79.791809     434.3539    23.503754    22.158625   0.86064798    435.21455   -4315.4212 
   29700   -101145.96   -90897.254    248.87654    20724    226263.34   -58.184276    -5.781671    -91.84191   -76.929247    434.16664     23.51127    22.165711   0.95428108    435.12092   -4309.2899 
   29800   -101111.02   -90865.082    248.80935    20724    226112.82    90.824812    28.760991    282.05446   -38.341018    433.98968    23.508239    22.162853    1.0427609    435.03244    -4354.309 
   29900    -101109.1   -90827.132    249.68411    20724     226153.1   -53.191558   -44.865833   -119.51512     4.806283    434.30166    23.501888    22.156865   0.88677181    435.18843   -4385.4879 
   30000    -101083.7   -90812.255     249.4287    20724    226290.24    44.238194   -51.968392    4.4415903    180.24138    434.29416    23.509215    22.163774    0.8905209    435.18468   -4400.3785 
   30100   -101078.72   -90852.416    248.33238    20724    226042.66    78.973002     32.00992     108.8652    96.043882    433.90082    23.506998    22.161683    1.0871881    434.98801    -4370.758 
   30200   -101020.71   -90845.538     247.0908    20724     226042.6   -65.155259    5.6738702   -268.75501    67.615363    434.03299    23.503416    22.158306     1.021106    435.05409   -4374.0508 
   30300    -101050.3   -90835.855    248.04439    20724    226138.01   -16.774762   -42.389931    214.73752   -222.67188    433.93606    23.511001    22.165457     1.069569    435.00563     -4383.03 
   30400   -101061.37   -90822.147    248.64607    20724    226079.87    73.954189    44.702017    125.42396    51.736588    434.05358    23.504796    22.159607    1.0108076    435.06439   -4403.4531 
   30500   -101059.03   -90801.372    249.09381    20724    226158.77   -48.771562   -52.000252   -262.62294    168.30851    433.91716    23.512592    22.166957    1.0790189    434.99618   -4418.4113 
   30600   -101153.03   -90783.033    251.82178    20724    226046.98   -46.457812    -114.5063    -215.2107    190.34356    433.69786    23.512723     22.16708    1.1886687    434.88653   -4440.9264 
   30700   -101050.04    -90743.08    250.29107    20724    225943.71   -26.643693    160.15605    -35.24664   -204.84049    433.89223    23.502086    22.157052    1.0914849    434.98372   -4485.6826 
   30800    -101007.3   -90765.125    248.71779    20724    226123.49   -52.753059   -173.33372   -54.219905     69.29445    433.99042    23.508774    22.163358    1.0423919    435.03281    -4456.556 
   30900   -101041.76   -90741.743    250.12258    20724    226143.13   -18.531601     -31.5264    185.39172   -209.46012    433.73563    23.516699    22.170829    1.1697828    434.90542   -4482.9761 
   31000   -101054.23   -90722.001    250.90468    20724    226031.46   -9.1196104   -91.314949    171.52035   -107.56423     433.6578    23.513002    22.167343    1.2087023     434.8665   -4508.9276 
   31100   -100977.65    -90742.65    248.54352    20724    226044.18   -1.2056544    67.284606    270.88625   -341.78782    433.56771    23.516106     22.17027    1.2537427    434.82146   -4487.6627 
   31200   -101049.42   -90704.605    251.21025    20724    226238.48   -101.31848   -46.861996   -239.48351   -17.609928    433.77781    23.520513    22.174424     1.148693    434.92651   -4515.7666 
   31300      -100973    -90718.63    249.01412    20724    226086.89   -39.779521    6.4336706   -174.70693    48.934697    433.70099    23.514714    22.168957    1.1871031     434.8881   -4510.9134 
   31400   -100964.97   -90678.647    249.78995    20724    226180.91   -63.115008   -69.963793   -19.701965   -99.679266    433.59228    23.522551    22.176346    1.2414617    434.83374   -4547.5606 
   31500   -100777.28   -90648.422    245.96606    20724    226076.28    111.03301    248.48236    232.72696    -148.1103    433.79031    23.511741    22.166154    1.1424429    434.93276   -4590.7079 
   31600   -101011.41   -90673.743    251.03681    20724    226093.91   -17.995293    -7.185683   -52.011144    5.2109491    433.67925    23.515668    22.169857    1.1979732    434.87723   -4561.1901 
   31700    -100885.5   -90643.482    248.71414    20724    226072.73    17.481447   -160.22842   -6.3431108    219.01587    433.74407     23.51281    22.167162    1.1655668    434.90963   -4593.0495 
   31800   -100925.05   -90637.926    249.80945    20724    226116.23   -40.077294   -69.729922   -92.340598    41.838637    433.69484    23.516406    22.170553    1.1901786    434.88502   -4596.9371 
   31900    -100964.3   -90620.399    251.18816    20724    226135.26     31.40588    134.65394   -314.22779    273.79149    433.71387     23.51688       22.171    1.1806652    434.89453     -4617.52 
   32000   -100930.92   -90611.769    250.58702    20724    226072.42    1.4166046   -108.72247    69.360233    43.612051    433.76595      23.5122    22.166588    1.1546233    434.92058   -4626.8714 
   32100   -100857.54   -90659.942    247.63536    20724     226217.6    20.057354    45.262306    130.42303   -115.51327    433.82765    23.518076    22.172127    1.1237766    434.95142   -4577.5075 
   32200   -100878.14    -90645.64    248.48301    20724    225823.24    -17.38947   -26.352873   -183.37631    157.56077    433.63991    23.502654    22.157588     1.217646    434.85755   -4601.2988 
   32300   -100907.33   -90638.179    249.37302    20724    226094.64    36.866606    99.738026    344.74238   -333.88059    434.12022     23.50376     22.15863   0.97749078    435.09771    -4606.137 
   32400   -100919.62   -90648.847    249.41246    20724    226063.71    21.352327    151.28937   -235.37763    148.14524    433.98053    23.505934     22.16068    1.0473371    435.02786   -4595.1519 
   32500   -100830.11   -90637.839    247.50591    20724     226225.2    88.231444    213.14104  -0.97226365    52.525558    434.08116    23.511603    22.166025   0.99702194    435.07818   -4606.4376 
   32600   -100790.62   -90609.134    247.24417    20724    226094.03    64.285264   -42.819824    150.13974     85.53588    434.12672    23.503552    22.158435   0.97424007    435.10096   -4637.0206 
   32700   -100866.56   -90615.243    248.93999    20724    226118.21   -74.454692   -12.267244   -62.405392   -148.69144    433.93022    23.510131    22.164636    1.0724909    435.00271   -4625.0597 
   32800   -100856.16    -90611.84    248.77008    20724    226181.79    79.210039   -38.575957     62.38189    213.82419     433.9737    23.512258    22.166642    1.0507478    435.02445    -4636.101 
   32900   -100803.07   -90607.928    247.57569    20724    225974.47    82.058049    5.0961689    -59.21972     300.2977    433.60357    23.511508    22.165935    1.2358155    434.83938   -4644.4057 
   33000   -100870.69   -90612.404    249.10904    20724    226008.27    53.829476    189.44297    58.488021   -86.442559    433.79881    23.507974    22.162603    1.1381958      434.937   -4641.3607 
   33100   -100890.29   -90592.661    250.06453    20724    226178.61    43.259609    81.000962    14.494027    34.283837    433.80815    23.516578    22.170715    1.1335236    434.94168     -4654.87 
   33200   -100834.25   -90550.656    249.72362    20724    226019.03   -81.512792   -163.55022   -318.76979    237.78164    433.42208    23.518748    22.172761    1.3265615    434.74864   -4697.6932 
   33300   -100817.15   -90557.605    249.13971    20724    226125.71   -11.663153   -74.536314  -0.46878213    40.015639    433.41188    23.524575    22.178254     1.331659    434.74354   -4692.0341 
   33400   -100832.54   -90606.252    248.33211    20724       226038   -12.727223   -107.75586    70.161506   -0.5873149    433.59144    23.515141     22.16936    1.2418782    434.83332   -4646.7607 
   33500   -100874.99   -90552.854    250.65953    20724    225951.61    90.356961    170.70975   -52.550832    152.91196     433.4858    23.513512    22.167824    1.2947022     434.7805   -4708.7732 
   33600   -100760.77    -90552.14     247.9034    20724    226098.75    46.768914    116.08909   -70.056965    94.274618    433.67617    23.516004    22.170173     1.199515    434.87569    -4703.248 
   33700    -100796.5   -90498.439    250.07506    20724    226067.93   -50.132671    8.6422603    -255.8768    96.836522    433.53574    23.518209    22.172252    1.2697304    434.80547   -4753.7469 
   33800   -100877.75   -90527.198    251.34956    20724    225848.46    9.4226542   -77.776978   -80.875518    186.92046    433.49253    23.507962    22.162591    1.2913341    434.78387   -4738.3264 
   33900   -100728.83   -90538.972    247.44741    20724    225922.83    57.483773     57.82299    -122.1386    236.76693    433.20714    23.519575     22.17354    1.4340289    434.64117   -4726.5153 
   34000   -100826.62   -90518.582    250.31736    20724     225786.8   -81.880206   -189.43946    36.235505   -92.436662     433.0048    23.517986    22.172043    1.5351989       434.54   -4745.8296 
   34100   -100924.91   -90549.839    251.94518    20724    226006.79   -15.904676   -19.153787     130.1093   -158.66954    433.11511    23.526444    22.180016    1.4800448    434.59516   -4711.7768 
   34200   -100864.38   -90528.067    251.00386    20724    225817.53    -74.67662      122.953    89.707651   -436.69051    433.33073     23.51074    22.165211    1.3722358    434.70296   -4738.5739 
   34300   -100903.65   -90586.475    250.53921    20724    225701.07    56.719793    27.281626   -14.029301    156.90705    432.76318    23.520084     22.17402    1.6560118    434.41919   -4692.5201 
   34400   -100886.65   -90555.804    250.87122    20724    225849.76   -94.093561   -35.258241   -64.175158   -182.84728    433.18132    23.516472    22.170615    1.4469406    434.62826    -4713.101 
   34500   -100877.68   -90530.948    251.25691    20724    225711.64    2.2779832   -102.43987    84.568323    24.705497    433.04136    23.513079    22.167416    1.5169208    434.55828     -4747.48 
   34600   -100827.85    -90492.84     250.9723    20724    225870.08    1.5938429   -0.8175472   -133.49465    139.09372    433.02686    23.521724    22.175567    1.5241709    434.55103   -4781.6472 
   34700   -100820.27   -90530.163    249.88176    20724     225687.2   -19.957373    129.02123    -139.8176   -49.075742    432.83708    23.517354    22.171446    1.6190601    434.45614   -4748.7896 
   34800   -100834.72   -90489.595    251.21798    20724    225867.76    4.7275821    189.16071    139.95926   -314.93722    433.09431    23.519771    22.173726    1.4904474    434.58475   -4788.9421 
   34900   -100780.16   -90473.689    250.27927    20724    225922.63   -6.2347843    -123.1751    249.25702   -144.78627    433.25085    23.518378    22.172412    1.4121749    434.66303   -4802.8475 
   35000   -100824.64   -90504.036    250.62235    20724    225628.41    9.7969073    35.050954    1.5281777   -7.1884096    432.82353    23.514658    22.168905    1.6258331    434.44937   -4783.9073 
   35100   -100704.71   -90468.552    248.57189    20724     225875.5    50.873568    116.90022   -66.244288    101.96478    433.35396    23.513127    22.167462     1.360619    434.71458   -4814.2726 
   35200   -100873.51   -90484.624    252.28054    20724    225609.27    15.148271    -89.90926   -93.607048    228.96112    433.32362    23.500089    22.155169    1.3757879    434.69941   -4807.2502 
   35300   -100832.95   -90490.655    251.14917    20724    225896.79    46.912438    69.740275    131.42709   -60.430051    433.61719    23.507097    22.161776    1.2290036     434.8462    -4797.366 
   35400   -100821.26     -90474.5     251.2576    20724    225697.36    -25.28482    -65.36853      45.1525   -55.638431    433.03422    23.512529    22.166898    1.5204907    434.55471   -4815.0459 
   35500   -100938.96   -90484.308    253.87759    20724     225765.1   -28.585255    63.668303   -328.71208    179.28801    433.03355    23.516075    22.170241    1.5208244    434.55438   -4805.4795 
   35600   -100694.38   -90444.666    248.90087    20724    225837.61     58.84595    122.84755   -92.590446    146.28074    433.21424    23.514946    22.169177    1.4304813    434.64472   -4846.2097 
   35700   -100871.45   -90445.283    253.18591    20724     225859.3   -47.644067    54.018286    63.784892   -260.73538    433.14874    23.517853    22.171917    1.4632305    434.61197   -4841.9414 
   35800   -100616.37   -90366.218     248.9116    20724    225583.76    81.276801   -118.15557    32.587729    329.39825    432.93054    23.509425    22.163972    1.5723281    434.50287   -4935.4615 
   35900   -100795.33   -90368.185    253.20969    20724    225910.93    9.6466731    -13.26755    67.923533   -25.715964    433.14709    23.520586    22.174494    1.4640569    434.61114   -4921.5211 
[...]
  491300   -93413.454    -80764.65    307.15972    20724    220272.84    141.11152    274.44523    143.47526    5.4140504     421.3995    23.546734    22.199145    7.3378517    428.73735   -22261.127 
  491400   -93539.868   -80684.327    312.18006    20724    220422.38    26.339939   -3.7583485   -186.96403     269.7422    421.77406    23.544265    22.196817    7.1505714    428.92463   -22334.368 
  491500   -93445.871   -80641.854    310.92887    20724    220765.65   -6.7057629    272.75025   -1.2165499   -291.65098     421.6333    23.566523    22.217802    7.2209483    428.85425   -22365.377 
  491600   -93420.183   -80610.887    311.05706    20724    220866.75   -126.36138    -389.6507    230.89089   -220.32431    421.27815    23.581852    22.232254    7.3985229    428.67668   -22389.604 
  491700   -93463.097    -80632.17    311.58235    20724    220753.77   -4.5374984    5.3697329   -230.80971    211.82748    421.44883    23.571046    22.222066    7.3131828    428.76202   -22380.862 
  491800   -93433.081   -80631.188    310.87729    20724    221166.79    40.852843     73.87029   -229.51777    278.20601    421.61851    23.588338    22.238368    7.2283461    428.84685   -22369.338 
  491900   -93440.151   -80643.443    310.75138    20724    220940.76   -86.891731   -216.65811    161.53741   -205.55449    421.49988    23.579599    22.230129    7.2876613    428.78754   -22359.427 
  492000   -93393.492   -80660.963    309.19289    20724    220959.54   -98.262972   -161.15785    4.2695008   -137.90057    421.59471    23.577948    22.228573    7.2402432    428.83496    -22342.13 
  492100   -93358.947   -80652.062    308.57015    20724    220766.17    13.298266   -89.583613    236.66451    -107.1861    421.25107     23.57724    22.227905    7.4120628    428.66314   -22365.437 
  492200    -93486.96   -80669.807    311.24785    20724    220982.84   -28.451891    17.745799   -84.939961   -18.161512    421.26046    23.588544    22.238563    7.4073683    428.66783    -22341.41 
  492300   -93395.021   -80634.286    309.87782    20724    220867.17    83.019997     132.0691    294.85509    -177.8642    420.84071    23.594128    22.243826    7.6172433    428.45796   -22385.275 
  492400   -93377.881   -80655.236    308.95286    20724    220933.77  -0.25401813     86.60605    284.10388   -371.47199    420.76554    23.599792    22.249167    7.6548301    428.42037   -22361.736 
  492500   -93403.838    -80675.03    309.10253    20724    220778.41    87.304825   -20.568098    83.975809    198.50676    420.95943     23.58606     22.23622    7.5578842    428.51732   -22354.984 
  492600   -93315.193    -80661.12    307.28768    20724    220844.92    80.146842   -8.5205082    48.596129    200.36491     421.1864    23.583256    22.233576     7.444401     428.6308   -22363.163 
  492700   -93410.563   -80694.095    308.80288    20724    220733.76    3.8449045    93.112391   -9.0550265   -72.522651    421.43218    23.570444    22.221498    7.3215121    428.75369   -22335.961 
  492800   -93315.085    -80670.34    307.06115    20724    220912.77    50.966619    73.995459    206.62206   -127.71766    421.40963     23.58063    22.231101     7.332787    428.74241   -22353.891 
  492900   -93293.451   -80653.691    306.94012    20724    220676.23   -30.144127    7.6719755   -43.349611   -54.754745     421.3515    23.569628    22.220729    7.3618516    428.71335   -22376.554 
  493000   -93374.036   -80638.281    309.27121    20724     220884.2    -26.58173    -229.2699   -45.668467    195.19318     421.4917    23.576809    22.227499    7.2917495    428.78345   -22389.242 
  493100   -93182.417   -80653.623    304.24543    20724    220495.38   -2.3576159    18.146966   -193.21911     167.9993    421.24739    23.562879    22.214366    7.4139052    428.66129   -22389.069 
  493200   -93552.763   -80671.908    312.79477    20724    221083.44   -53.968676    181.34083    60.942594   -404.18946    422.06482     23.57142    22.222418    7.0051884    429.07001    -22350.61 
  493300   -93379.088   -80619.907    309.84008    20724    220728.58    -41.43436    53.327149   -99.820817   -77.809413    421.97528    23.554994    22.206932    7.0499612    429.02524   -22417.384 
  493400   -93305.588   -80660.271    307.07505    20724    220615.49   -7.2140552   -57.140527   -347.23554     382.7339    421.78285     23.55433    22.206307    7.1461755    428.92902   -22383.397 
  493500   -93312.184   -80673.407    306.91625    20724    220648.95    35.270975    103.18394    113.73065   -111.10167    421.95403    23.551337    22.203485    7.0605846    429.01462    -22371.63 
  493600    -93428.03     -80649.9    310.30025    20724    220921.55   -54.123595   -181.99353   -112.29761    131.92035    421.96237    23.565648    22.216977    7.0564143    429.01879   -22383.275 
  493700   -93488.739   -80710.502    310.30284    20724     220676.8    39.240762    9.9872121    174.83857   -67.103496    422.04404    23.550312    22.202519    7.0155786    429.05962   -22337.362 
  493800   -93504.014   -80691.848    311.12675    20724    220884.06    64.220495     133.3134    225.11604   -165.76796    422.11411    23.559413    22.211099    6.9805429    429.09466   -22354.309 
  493900   -93350.116   -80644.921    308.52911    20724    221285.79    44.957792    84.757878    52.729396   -2.6138979    422.64053    23.566138    22.217438     6.717334    429.35787   -22384.554 
  494000    -93343.53   -80621.533    308.93712    20724    221155.94   -21.039167   -123.86454    57.829435     2.917604    422.55267    23.561671    22.213227    6.7612629    429.31394   -22411.008 
  494100   -93568.569   -80660.901     313.4459    20724    221103.27   -50.725985   -40.845101    26.174854   -137.50771    422.15313    23.570011     22.22109    6.9610341    429.11417   -22372.788 
  494200   -93378.735   -80668.233    308.65797    20724    221284.16     58.64927    154.42683   -308.64294    330.16392    422.20769    23.578127    22.228742    6.9337563    429.14144   -22364.591 
  494300   -93321.285   -80650.347     307.6972    20724    221212.95   -36.084025   -84.094318    5.7540922   -29.911849    422.07178    23.578129    22.228743    7.0017117    429.07349   -22380.838 
  494400   -93288.397   -80652.889    306.83686    20724    221443.59   -30.992309    -286.5726   -237.04991    430.64558    422.28471    23.584469     22.23472    6.8952434    429.17996   -22372.294 
  494500   -93313.412   -80691.171    306.51469    20724    221089.65    47.535928    38.417119    206.40485   -102.21418    422.07281    23.571528     22.22252    7.0011935    429.07401   -22354.669 
  494600   -93289.735   -80643.041    307.10849    20724    220793.95   -2.5522367   -217.30709   -37.205677    246.85605    421.88385    23.561034    22.212627    7.0956738    428.97953   -22412.466 
  494700   -93257.106   -80628.311    306.67384    20724    220893.98    96.003163    197.36559    252.37363   -161.72973    422.09198     23.56056     22.21218    6.9916121    429.08359   -22429.667 
  494800   -93319.375   -80655.176    307.53355    20724    220707.16   -45.713911   -94.340322   -29.936765   -12.864648    422.04375     23.55194    22.204053    7.0157271    429.05947   -22405.698 
  494900   -93453.121   -80675.975    310.27633    20724    220402.57   -52.449012   -58.541592    42.536513   -141.34196    421.40777    23.553436    22.205463    7.3337137    428.74149   -22400.105 
  495000   -93404.775   -80634.155    310.11787    20724    220712.99   0.70512648     -73.3746   -2.1974749    77.687454    421.52221    23.566817    22.218079    7.2764937    428.79871   -22434.394 
  495100   -93380.332   -80646.829    309.21655    20724    220993.01    61.296188   -323.10286    365.74808    141.24335    421.50055    23.582368    22.232739    7.2873246    428.78788   -22417.139 
  495200   -93404.958   -80669.743    309.25812    20724    220967.29    66.397077    68.706838    61.241081    69.243312    421.54549    23.579739    22.230261    7.2648569    428.81034   -22397.219 
  495300   -93355.526   -80649.867    308.54037    20724    221267.48   -44.890479    116.80546    -57.61528   -193.86162    421.96613    23.583987    22.234266     7.054537    429.02066    -22403.26 
  495400   -93344.112   -80650.771    308.24124    20724    220729.06   -90.213551   -128.64912   -21.683345   -120.30819    421.73573    23.561708    22.213262    7.1697353    428.90546   -22419.661 
  495500   -93351.731   -80561.512    310.59381    20724    220807.59   -49.803102    56.147321    163.61042   -369.16704    421.85728    23.562504    22.214012    7.1089598    428.96624   -22509.664 
  495600   -93318.508   -80580.809    309.31843    20724    221081.66    16.289735      53.4269     29.05221   -33.609905    421.90518    23.575784    22.226532    7.0850076    428.99019   -22486.998 
  495700   -93390.863   -80584.345    310.98962    20724    220888.04   -94.670989    255.31575    -352.6911   -186.63762     422.3753     23.55234     22.20443    6.8499479    429.22525   -22488.462 
  495800    -93306.17   -80597.551    308.61225    20724    221245.05    4.9218323    54.504965   -85.290914    45.551445     422.6339    23.564153    22.215567    6.7206489    429.35455   -22466.283 
  495900   -93266.315   -80633.961    306.76026    20724     220919.2   -97.003098   -34.821862   -179.52714   -76.660294    422.61669    23.547273    22.199653    6.7292536    429.34595   -22438.542 
  496000   -93321.714     -80670.3     307.2231    20724    220620.93    72.606778   -83.024992   -124.00241    424.84774    422.02332    23.547909    22.200252    7.0259408    429.04926   -22424.481 
  496100    -93319.79   -80591.437    309.09145    20724    220914.45    7.2758862   -137.12221    103.40888    55.540993    422.33573    23.554851    22.206798    6.8697373    429.20546   -22490.898 
  496200   -93376.145   -80580.134    310.73446    20724    220917.39    10.339587   -62.413463    71.343089    22.089134    422.31315    23.555637    22.207539    6.8810264    429.19417   -22504.924 
  496300   -93390.108   -80558.139    311.60765    20724    221035.47    90.122646    197.69674   -340.42752    413.09872    422.14575    23.566603    22.217877     6.964727    429.11047   -22526.394 
  496400   -93319.077   -80569.049    309.61782    20724    221292.87    92.112024    121.93644    114.67182    39.727812     422.7313    23.563984    22.215408    6.6719475    429.40325   -22506.287 
  496500    -93359.05   -80605.293    309.70837    20724    220885.42   -36.652223   -230.03506    176.13586   -56.057465    422.72441    23.542473    22.195128    6.6753954     429.3998   -22484.166 
  496600   -93301.818   -80582.948    308.86119    20724    220889.59   -75.031027   -167.05831   -284.70278      226.668    422.50685    23.548756    22.201051    6.7841771    429.29102   -22505.871 
  496700   -93337.964   -80574.044    309.95518    20724    221087.88    45.595126   -2.4409229   -297.87632    437.10262    422.81442    23.550752    22.202933    6.6303877    429.44481   -22513.495 
  496800   -93356.321   -80597.035    309.84263    20724    220898.77   -89.484493   -44.368822    22.125318   -246.20998    422.28117    23.555537    22.207444     6.897017    429.17818   -22495.338 
  496900   -93470.547    -80626.42    311.90289    20724    220981.69    -144.4931   -209.01804   -37.775817   -186.68544    422.04553    23.566533    22.217811    7.0148328    429.06037   -22462.212 
  497000   -93337.524   -80642.816    308.27444    20724    220596.05    30.094788     69.29093    150.35171   -129.35827    421.85287    23.551338    22.203485    7.1111674    428.96403   -22469.718 
  497100   -93370.936   -80669.052    308.44869    20724    220578.55    1.3630265    126.45264   -248.86112    126.49756    422.49544    23.532488    22.185714    6.7898823    429.28532   -22445.216 
  497200   -93345.376   -80680.921    307.53978    20724    220450.08   -92.726885   -198.73897    23.070591   -102.51228    422.29562    23.531199    22.184499    6.8897903    429.18541   -22433.678 
  497300   -93365.112   -80691.705    307.75717    20724    220501.84    41.027477    22.440681    183.78992   -83.148168    422.46537    23.529233    22.182645     6.804914    429.27029   -22430.321 
  497400   -93501.771   -80682.965    311.28799    20724     220392.2   -101.42593   -348.56091    198.59494   -154.31183    421.97215    23.537126    22.190087    7.0515246    429.02368   -22438.726 
  497500   -93500.216   -80681.799    311.27856    20724    220551.47      -21.338    84.952295   -145.06283   -3.9034684    421.79471    23.550581    22.202772    7.1402427    428.93496   -22441.484 
  497600   -93230.259   -80618.944    306.24935    20724    220512.29   -51.791571    1.9872169    88.828342   -246.19027    422.24933    23.535809    22.188845    6.9129363    429.16226   -22506.967 
  497700   -93328.476   -80588.625    309.37068    20724    220676.34    166.91106    145.74973    199.39996    155.58349     422.0465    23.550219     22.20243    7.0143512    429.06085   -22540.963 
  497800     -93285.9   -80617.304    307.64035    20724    220748.79    105.83978   -67.346816     195.3544    189.51177    422.33949    23.545913    22.198371    6.8678569    429.20734   -22508.825 
  497900   -93337.652   -80620.368    308.82268    20724    220592.68    12.610785    206.27611   -202.62112    34.177363    422.14477    23.543014    22.195638    6.9652155    429.10998   -22509.712 
  498000   -93377.062   -80624.221    309.68612    20724    220558.08   -50.046596   -122.08264   -131.82756    103.77041    422.10676    23.542227    22.194896    6.9842185    429.09098     -22506.8 
  498100   -93353.709   -80627.766    309.03294    20724    220414.02    91.246036   -27.294137    336.69644     -35.6642    422.00279    23.537437     22.19038    7.0362068    429.03899   -22515.988 
  498200   -93227.716   -80607.011    306.47739    20724     220841.7   -4.4293502    66.040355    -293.8654      214.537     422.4606    23.547492    22.199859     6.807302     429.2679   -22515.934 
  498300   -93327.758   -80615.343    308.70445    20724    220851.15   -83.444063   -139.78318    -331.9325     221.3835    422.18577    23.555659    22.207559    6.9447131    429.13049   -22507.484 
  498400   -93303.943   -80626.504    307.85509    20724    220549.74    8.6493509   -102.34815    40.123094     88.17311    422.09365    23.542148    22.194821    6.9907757    429.08442    -22512.26 
  498500   -93379.542   -80595.109     310.4533    20724    220722.41   -92.735196    208.12362   -195.19845   -291.13075    421.97863    23.554571    22.206534    7.0482841    429.02692   -22534.209 
  498600   -93182.543   -80591.123    305.76624    20724    220695.64   -7.2029474   -241.84366   -8.3382968    228.57311    422.11409    23.549363    22.201623     6.980554    429.09465    -22545.88 
  498700   -93468.893   -80668.476    310.84145    20724    220557.11   -11.657371   -138.69791   -199.40489    303.13068    422.06423    23.543361    22.195965    7.0054827    429.06972   -22477.729 
  498800   -93420.455   -80648.192    310.15778    20724    220718.52    104.28513      78.8111   -27.233382    261.27768    421.74748    23.560817    22.212422    7.1638586    428.91134   -22501.186 
  498900   -93288.747   -80620.226    307.63854    20724    220716.87    35.683282    31.768199    289.95752   -214.67587    421.94565    23.555196    22.207123    7.0647761    429.01042   -22523.228 
  499000   -93483.956   -80634.176    312.04015    20724    220588.24    60.913396    226.99882    64.265635   -108.52427    421.53112    23.559907    22.211564    7.2720398    428.80316   -22520.858 
  499100   -93426.023   -80679.946    309.52187    20724    220300.24    7.8632158    119.41602    251.82006   -347.64643    421.59295    23.542796    22.195432    7.2411268    428.83407    -22484.18 
  499200   -93383.325   -80628.893    309.72477    20724    220800.95   -122.68145   -200.74057   -50.939301   -116.36449    421.64242    23.568152    22.219337    7.2163885    428.85881   -22512.814 
  499300   -93418.122   -80649.291    310.07443    20724    220596.73    31.886575   -228.04145    51.174418    272.52676    421.19763    23.569686    22.220783    7.4387867    428.63641   -22510.371 
  499400    -93421.16   -80622.476    310.79936    20724    220317.93   -81.394718   -246.27211    149.47157   -147.38361    420.62971    23.570683    22.221723    7.7227443    428.35246   -22544.432 
  499500   -93332.182   -80599.036    309.20785    20724    220435.66   -5.9231583    -85.78607    35.563481    32.453115    420.74839    23.573655    22.224525    7.6634061    428.41179   -22566.413 
  499600   -93431.335   -80631.275    310.83278    20724    220443.03    1.6037786   -161.04493   -4.6025057    170.45878    420.39134    23.584057    22.234332    7.8419276    428.23327   -22538.346 
  499700   -93419.766   -80644.683    310.22626    20724    220495.93   -44.668411    23.943996     50.96403   -208.91326      420.625    23.580334    22.230822    7.7250997     428.3501   -22521.019 
  499800   -93467.641   -80656.129    311.11088    20724    220502.07   -20.962389   -313.89953    335.42415   -84.411787    420.64435    23.580121    22.230621     7.715427    428.35977   -22514.336 
  499900   -93353.782   -80638.656    308.77025    20724    220680.73    6.2794645   -95.357747   -53.752365     167.9485    420.57945    23.591491    22.241341    7.7478744    428.32733   -22527.203 
  500000    -93383.18   -80633.457    309.61043    20724    220184.07   -163.51868   -330.64395   -270.15683    110.24476    420.43286    23.569037    22.220172    7.8211688    428.25403   -22543.442 
Loop time of 50835.9 on 32 procs for 500000 steps with 20724 atoms

Performance: 1.700 ns/day, 14.121 hours/ns, 9.836 timesteps/s
97.3% CPU use with 32 MPI tasks x no OpenMP threads

MPI task timing breakdown:
Section |  min time  |  avg time  |  max time  |%varavg| %total
---------------------------------------------------------------
Pair    | 6266.2     | 9064.4     | 12956      |2430.2 | 17.83
Bond    | 0.36024    | 0.45498    | 0.55741    |   7.4 |  0.00
Kspace  | 7627.7     | 11533      | 14345      |2166.6 | 22.69
Neigh   | 8175.6     | 10074      | 11872      |1316.0 | 19.82
Comm    | 371.22     | 3682.8     | 7212.7     |4245.2 |  7.24
Output  | 3.3712     | 43.683     | 71.729     | 364.2 |  0.09
Modify  | 12906      | 16400      | 21448      |2346.6 | 32.26
Other   |            | 37.47      |            |       |  0.07

Nlocal:    647.625 ave 698 max 601 min
Histogram: 4 3 2 8 2 1 2 3 2 5
Nghost:    7409.44 ave 7896 max 6957 min
Histogram: 5 2 1 9 1 1 1 4 4 4
Neighs:    239193 ave 273466 max 213943 min
Histogram: 7 6 5 0 2 1 1 3 1 6
FullNghs:  478388 ave 548235 max 428304 min
Histogram: 7 6 5 0 2 1 2 2 0 7

Total # of neighbors = 15308418
Ave neighs/atom = 738.681
Ave special neighs/atom = 2
Neighbor list builds = 500000
Dangerous builds not checked
write_data production.R1
PPPM initialization ...
  extracting TIP4P info from pair style
WARNING: Using 12-bit tables for long-range coulomb (../kspace.cpp:316)
  G vector (1/distance) = 0.346019
  grid = 400 48 48
  stencil order = 5
  estimated absolute RMS force accuracy = 0.000399441
  estimated relative force accuracy = 1.2029e-06
  using double precision FFTs
  3d grid and FFT values/proc = 67260 38400
write_restart restartproduction.R1
PPPM initialization ...
  extracting TIP4P info from pair style
WARNING: Using 12-bit tables for long-range coulomb (../kspace.cpp:316)
  G vector (1/distance) = 0.346019
  grid = 400 48 48
  stencil order = 5
  estimated absolute RMS force accuracy = 0.000399441
  estimated relative force accuracy = 1.2029e-06
  using double precision FFTs
  3d grid and FFT values/proc = 67260 38400
Total wall time: 14:07:16
