LAMMPS (30 Jul 2016)
# Sets up LAMMPS simulation for transient melting of ice: TIP4P/Ice
# Ensure cold thermostats do not move
# Thinbox: 16x1x1
# Defects
# Order param l=2

#### setting MD parameters ####
units real
boundary p p p
atom_style full

# read ice box in restart file
### read the equilibrated NPT restart file

read_restart restart.state
  orthogonal box = (0.352911 0.0190435 0.0179537) to (435.722 23.5122 22.1665)
  32 by 1 by 1 MPI processor grid
  20736 atoms
  13824 bonds
  6912 angles
  2 = max # of 1-2 neighbors
  1 = max # of 1-3 neighbors
  1 = max # of 1-4 neighbors
  2 = max # of special neighbors


#### force field definition ####
pair_style      lj/cut/tip4p/long 2 1 1 1 0.1577 10.0
pair_modify	tail yes

kspace_style	pppm/tip4p 1.0e-6

bond_style	harmonic
angle_style	harmonic
dihedral_style	none
improper_style	none

bond_coeff	1 450.0 0.9572
angle_coeff	1 55.0 104.52


# reset pair coeff
pair_coeff	* * 0.0 0.0

#OO
pair_coeff	2 2 0.21085 3.1668
#OH
pair_coeff	* 1 0.0000 0.0000

neighbor        2.0 bin
neigh_modify    every 1 delay 1 check no

timestep	2.0
fix		constraints all shake 0.000001 20 0 b 1 a 1
  0 = # of size 2 clusters
  0 = # of size 3 clusters
  0 = # of size 4 clusters
  6912 = # of frozen angles

group water type 1 2
20736 atoms in group water

#*********** SIMULATION PARAMETER TO ADJUST ****************
#Box dimensions
variable lx equal lx
variable ly equal ly
variable lz equal lz

### Temperature of the hot and cold regions ####
variable thi equal 375
variable tlo equal 215
variable runpressure equal 0.986923


# Configuration equilibrated in density and temperature

# Define dx here

variable lx equal lx
variable ly equal ly
variable lz equal lz

variable xlo equal xlo
variable xhi equal xhi

variable boxcentre equal ${xlo}+(${xhi}-${xlo})/2
variable boxcentre equal 0.352910516842627+(${xhi}-${xlo})/2
variable boxcentre equal 0.352910516842627+(435.722289483159-${xlo})/2
variable boxcentre equal 0.352910516842627+(435.722289483159-0.352910516842627)/2

variable dx equal 2.0

#### ADD IN DEFECTS AT THE CENTRE OF THE HOT THERMOSTAT #####
variable y1 equal ${ly}/2.0
variable y1 equal 23.4931129546749/2.0
variable z1 equal ${lz}/2.0
variable z1 equal 22.1485926915321/2.0

region kill1 sphere ${boxcentre} ${y1} ${z1} 3
region kill1 sphere 218.037600000001 ${y1} ${z1} 3
region kill1 sphere 218.037600000001 11.7465564773374 ${z1} 3
region kill1 sphere 218.037600000001 11.7465564773374 11.0742963457661 3
delete_atoms region kill1 compress no bond yes mol yes
Deleted 12 atoms, new total = 20724
Deleted 8 bonds, new total = 13816
Deleted 4 angles, new total = 6908
############


variable thip equal ${thi}*2.0/3.0
variable thip equal 375*2.0/3.0
variable tlop equal ${tlo}*2.0/3.0
variable tlop equal 215*2.0/3.0
variable hbl equal ${boxcentre}-${dx}
variable hbl equal 218.037600000001-${dx}
variable hbl equal 218.037600000001-2
variable hbh equal ${boxcentre}+${dx}
variable hbh equal 218.037600000001+${dx}
variable hbh equal 218.037600000001+2

#***************************************************
## EQUILIBRATION PERIOD - to reach the steady state ###
#run 0

#reset the timestep to start your production run
reset_timestep 0

# define a group to perform averages
#group s1 type 1
###*** SYSTEM THERMOSTATTING: HOT and COLD regions ***###

fix NVE all nve
fix PRESS all press/berendsen aniso ${runpressure} ${runpressure} 500000 couple yz
fix PRESS all press/berendsen aniso 0.986923 ${runpressure} 500000 couple yz
fix PRESS all press/berendsen aniso 0.986923 0.986923 500000 couple yz


### Apply THERMOSTATS ###

#set up the "hot region" in the middle of the box
region hot block ${hbl} ${hbh} 0 ${ly} 0 ${lz} units box
region hot block 216.037600000001 ${hbh} 0 ${ly} 0 ${lz} units box
region hot block 216.037600000001 220.037600000001 0 ${ly} 0 ${lz} units box
region hot block 216.037600000001 220.037600000001 0 23.4931129546749 0 ${lz} units box
region hot block 216.037600000001 220.037600000001 0 23.4931129546749 0 22.1485926915321 units box


#set up the "cold region" at the left end of the box
#region cold block ${cbl} ${cbh} 0 ${ly} 0 ${lz} units box

#set up the "cold region" at the right end of the box
#region cold2 block ${h2bl} ${xhi} 0 ${ly} 0 ${lz} units box


#Cold regions  unification
#region cold union 2 cold1 cold2 units box

#Create group of cold molecules
####group cool_ice region cold
####group cool_ice include molecule

####compute cold_temp cool_ice temp
####fix cold_rescale water temp/rescale 1 ${tlo} ${tlo} 0.0001 1.0
####fix_modify cold_rescale temp cold_temp

#this calculates the temperature using only the atoms in the "hot region"
#compute hot_temp all temp/region hot

# calculate the temperature using only WATER in the "hot region"
compute hot_temp water temp/region hot

#this calculates the temperature using only WATER in the "cold region"
#compute cold_temp water temp/region cold


#set up a basic velocity rescale for the hot region WATER with thip
fix hot_rescale water temp/rescale 1 ${thip} ${thip} 1.0 1.0
fix hot_rescale water temp/rescale 1 250 ${thip} 1.0 1.0
fix hot_rescale water temp/rescale 1 250 250 1.0 1.0
#change the thermostat to only act on the "hot region"
#this is done by passing it the "hot temp" compute that we defined above
fix_modify hot_rescale temp hot_temp

#set up a basic velocity rescale for the cold region
#fix cold_rescale water temp/rescale 1 ${tlop} ${tlop} 1.0 1.0
#change the thermostat to only act on the "cold region"
#this is done by passing it the "cold temp" compute that we defined above
#fix_modify cold_rescale temp cold_temp

### Ensure MOMENTUM CONSERVATION ###

#ensure that linear momentum is conserved despite the "thermostatting" by velocity rescaling
fix cons_mom all momentum 1 linear 1 1 1


thermo 100
thermo_style custom step pe etotal temp atoms vol press pxx pyy pzz lx ly lz xlo xhi  f_hot_rescale

group ox type 2
6908 atoms in group ox
group hy type 1
13816 atoms in group hy
compute KE all ke/atom
variable TEMP atom c_KE*4186.8/(1.3806488*6.02214129)

compute cc1 all chunk/atom bin/1d x center 2 units box
#fix TPROFILE all ave/chunk 1 500 500 cc1 v_TEMP density/number file temp.dat
fix TPROFILEox ox ave/chunk 1 500 500 cc1 v_TEMP density/number file temp-ox.dat
fix TPROFILEhy hy ave/chunk 1 500 500 cc1 v_TEMP density/number file temp-hy.dat

compute orderparam ox orientorder/atom degrees 1 2 nnn 4 cutoff 3.5
compute cc2 ox chunk/atom bin/1d x center 2 units box
#fix ORDERPARAM all ave/chunk 1 500 500 cc2 c_orderparam[1] file order-param.dat
fix ORDERPARAM all ave/chunk 1 500 500 cc2 c_orderparam[1] file order-param.dat

restart 50000 config.restart

run 500000
PPPM initialization ...
  extracting TIP4P info from pair style
WARNING: Using 12-bit tables for long-range coulomb (../kspace.cpp:316)
  G vector (1/distance) = 0.345578
  grid = 405 48 48
  stencil order = 5
  estimated absolute RMS force accuracy = 0.000406389
  estimated relative force accuracy = 1.22383e-06
  using double precision FFTs
  3d grid and FFT values/proc = 67260 38880
Neighbor list info ...
  2 neighbor list requests
  update every 1 steps, delay 1 steps, check no
  max neighbors/atom: 2000, page size: 100000
  master list distance cutoff = 12.3154
  ghost atom cutoff = 12.3154
  binsize = 6.1577 -> bins = 71 4 4
Memory usage per processor = 12.7698 Mbytes
Step PotEng TotEng Temp Atoms Volume Press Pxx Pyy Pzz Lx Ly Lz Xlo Xhi hot_resc 
       0   -103841.58   -94990.584    214.93487    20724    226539.84   -165.74163   -325.60886    -154.3041   -17.311939    435.36938    23.493113    22.148593   0.35291052    435.72229            0 
     100   -103696.25   -94765.221    216.87836    20724    226222.23   -36.940149   -27.729678   -20.766305   -62.324465    435.22669    23.480487    22.136689   0.42425574    435.65094   -237.67406 
     200   -103717.37   -94708.743    218.76278    20724    226351.02    -42.13968   -233.47132     170.8292   -63.776929    435.10628    23.490419    22.146053   0.48445868    435.59074   -290.41464 
     300   -103658.53   -94685.482    217.89875    20724    226134.54    3.0427501   -96.399593    45.375551    60.152293     435.0425    23.480904    22.137083   0.51635152    435.55885   -320.77955 
     400   -103609.94   -94627.098    218.13667    20724    226361.77    28.080878    85.399828   -189.15026    187.99306     435.0402    23.492761    22.148261   0.51749873     435.5577   -376.23925 
     500   -103517.63   -94553.125    217.69142    20724    226226.72   -9.4768851     118.3302   -182.11565    35.354799    435.04501    23.485622     22.14153   0.51509337    435.56011   -451.98136 
     600   -103549.34   -94511.202     219.4794    20724    226342.39   -40.487967   -154.41081    102.19563   -69.248725    435.12512    23.489463    22.145151   0.47503809    435.60016   -490.08986 
     700   -103460.17   -94464.875     218.4389    20724    226369.57  -0.89498817   -158.83994    42.183638    113.97134    435.15654    23.490025    22.145681   0.45932908    435.61587   -538.62486 
     800   -103435.74   -94410.568    219.16465    20724    226558.57    15.451371     40.59177    319.21948   -313.45714    435.33682    23.494963    22.150337   0.36918884    435.70601   -591.39096 
     900   -103471.15   -94394.148    220.42319    20724    226361.33   -42.791289    48.165498    77.057078   -253.59644    435.24097    23.487319     22.14313   0.41711365    435.65809   -610.70607 
    1000   -103411.53   -94371.501    219.52533    20724    226549.09    78.852537    118.88889    106.60024    11.068482    435.23677    23.497172    22.152419   0.41921724    435.65598   -634.38457 
    1100   -103400.86   -94340.078    220.02935    20724    226408.24    4.2733256    16.388208   -122.13349    118.56525     435.4761     23.48341    22.139445   0.29954886    435.77565   -667.53887 
    1200   -103459.86   -94314.677     222.0789    20724    226597.07    -6.478991    103.82366    74.266365     -197.527    435.44603    23.494013    22.149441   0.31458425    435.76062    -689.4741 
    1300   -103337.78   -94261.006    220.41767    20724    226357.97     54.31294    63.480374    69.547724    29.910721    435.04399    23.492461    22.147978   0.51560261     435.5596   -748.77957 
    1400   -103467.41   -94264.639    223.47722    20724    226632.89   -19.428671   -0.3734856     -57.2902  -0.62232649    435.46434    23.495375    22.150725   0.30542887    435.76977   -738.84284 
    1500   -103377.02   -94214.253     222.5058    20724    226562.44    22.652749    21.859574    -85.00832    131.10699    435.41997     23.49292    22.148411    0.3276164    435.74758   -792.41524 
    1600   -103350.74   -94170.016    222.94188    20724     226567.4   -35.988008   -93.992888    108.16997   -122.14111    435.36869    23.494561    22.149957   0.35325565    435.72194   -834.84176 
    1700    -103388.4   -94176.356     223.7024    20724    226517.58    15.398755   -78.310502    192.31888   -67.812111    435.07776    23.499831    22.154926   0.49871882    435.57648   -834.87438 
    1800   -103419.18   -94144.751    225.21743    20724    226584.28    39.727103    73.554005    173.43329   -127.80599    435.30964    23.497029    22.152285   0.38278001    435.69242   -866.97805 
    1900   -103216.55   -94107.943    221.19059    20724    226450.42   -20.411864    115.32657   -178.67332    2.1111586    435.20207     23.49299    22.148477   0.43656283    435.63864   -902.97979 
    2000   -103403.29   -94090.498    226.14893    20724    226581.64   -96.218902   -178.67987     217.2186   -327.19544    435.43129     23.49361    22.149061   0.32195347    435.75325    -916.4844 
    2100   -103227.33   -94066.114    222.46813    20724    226657.52    7.9634789   -1.0430543    165.30066   -140.36717    435.30324    23.500999    22.156028   0.38597937    435.68922   -941.58647 
    2200    -103203.7   -94056.714    222.12265    20724    226447.34     38.40006     189.1473   -204.61597    130.66885    435.11742    23.495116    22.150481   0.47888932    435.59631   -958.86589 
    2300   -103295.57   -94013.076    225.41336    20724    226657.65   -93.308702   -347.89535     70.97657    -3.007326    435.35669    23.499564    22.154674   0.35925638    435.71594   -992.77131 
    2400   -103204.94    -93997.08    223.60097    20724    226500.72    39.770004    24.914191    252.71522    -158.3194    435.27991    23.493499    22.148957   0.39764598    435.67755   -1019.7978 
    2500   -103200.54   -93996.198    223.51545    20724    226633.42   -8.4200973   -46.026313   -70.618906    91.384927     435.2754    23.500501    22.155558   0.39989829     435.6753   -1016.2205 
    2600    -103220.6   -93966.359    224.72724    20724     226432.2    7.0276493   -57.956091    21.197462    57.841577    435.19687    23.492186    22.147719   0.43916725    435.63603   -1050.6613 
    2700    -103171.8   -93938.949     224.2077    20724     226362.5    -16.76245    51.138592   -122.59861    21.172663    435.22104    23.487918    22.143695   0.42708188    435.64812   -1081.4417 
    2800   -103159.68   -93907.772    224.67062    20724    226706.86    6.0354006   -10.602273    23.248827    5.4596485    435.18276    23.506811    22.161506   0.44621999    435.62898   -1105.7052 
    2900   -103178.07    -93932.47    224.51732    20724     226399.1    9.0123466    82.281287   -64.359537      9.11529     435.2587      23.4888    22.144527   0.40825024    435.66695   -1092.0489 
    3000   -103108.65   -93856.898    224.66672    20724    226647.83   -7.0060866    42.877138    30.566663   -94.462061    435.33964    23.499515    22.154628   0.36778109    435.70742   -1158.3701 
    3100   -103149.94   -93874.362    225.24541    20724    226691.31     28.26328   -24.873758   -87.811608     197.4752    435.60037    23.494734    22.150121   0.23741319    435.83779   -1144.5563 
    3200   -103191.88   -93845.105    226.97426    20724    226752.96   -30.946161   -13.914948     70.88019   -149.80372    435.58018    23.498473    22.153646   0.24751248    435.82769   -1170.3674 
    3300   -103236.31   -93852.954    227.86263    20724    226550.36    5.0247555    98.275704   -55.314233   -27.887204    435.40835    23.492607    22.148116    0.3334243    435.74178   -1170.1828 
    3400   -103101.06   -93782.333     226.2931    20724    226624.09   -49.098284   -235.37155    116.18045    -28.10376    435.41471    23.496258    22.151558   0.33024598    435.74495   -1236.4641 
    3500   -103098.76   -93814.097    225.46583    20724    226634.04   -3.7608392    99.196375   -3.8140622   -106.66483    435.37296      23.4979    22.153106   0.35111819    435.72408   -1208.4243 
    3600   -103038.63   -93766.089    225.17159    20724       226510    37.676384     205.3093    24.618327   -116.89848    435.33361    23.492531    22.148044    0.3707949    435.70441    -1261.371 
    3700   -103053.39   -93759.639    225.68669    20724    226319.19    59.141939    143.89048   -65.973697    99.509033    435.19847     23.48628    22.142151   0.43836578    435.63683   -1275.1494 
    3800   -103085.69    -93693.13    228.08615    20724     226702.5   -2.7645451    -136.0046   -76.200914    203.91188    435.34116    23.502308    22.157261    0.3670224    435.70818   -1330.3023 
    3900   -103078.21   -93634.346    229.33199    20724    226648.18    37.761087   -62.061772    14.751547    160.59349    435.56183    23.493538    22.148994   0.25668463    435.81852   -1395.3985 
    4000   -102932.46   -93647.027    225.48468    20724    226538.97    70.784626   -137.18822   -65.940802     415.4829    435.53274    23.488662    22.144396   0.27123109    435.80397    -1387.087 
    4100   -102992.83   -93672.073    226.34236    20724    226815.55    81.333612    86.448605    57.607997    99.944233    435.37385    23.507284    22.161953   0.35067282    435.72453   -1356.8377 
    4200   -102962.78    -93594.91    227.48642    20724    226679.08    79.315688    171.94758    136.78577   -70.786282    435.32725    23.501469     22.15647   0.37397641    435.70122   -1438.9822 
    4300   -102862.09   -93605.442    224.78563    20724    226634.53    62.575638  -0.30448613   -14.179887    202.21129    435.44762    23.495911    22.151231   0.31378864    435.76141   -1427.6325 
    4400   -102996.99   -93587.462     228.4981    20724    226610.16   -42.765315   -121.93598    57.336398   -63.696367    435.53063    23.492409    22.147929   0.27228394    435.80292   -1442.0326 
    4500   -102930.25   -93591.882    226.77012    20724    226498.58    19.884459     4.013921    196.60449   -140.96503    435.27754    23.493451    22.148912   0.39882783    435.67637   -1446.7846 
    4600   -102978.88   -93553.115    228.89255    20724    226611.53   -57.023043   -91.986062   -22.898029   -56.185039    435.32932    23.497911    22.153116   0.37293791    435.70226   -1480.0245 
    4700   -102922.15   -93590.351    226.61068    20724    226428.58    172.77882    86.852987    444.41137   -12.927908    435.22376    23.491272    22.146858    0.4257194    435.64948   -1459.4999 
    4800   -102994.52   -93552.936     229.2765    20724    226493.28   -24.543155   -7.8289124    -44.07749   -21.723064    435.29869    23.492606    22.148115   0.38825631    435.68694   -1488.1619 
    4900   -102843.02   -93502.224    226.82911    20724    226491.09    49.801362    238.27715    -433.6093    344.73624    435.14536    23.496631    22.151909   0.46491893    435.61028   -1541.8384 
    5000   -102902.26    -93511.78    228.03552    20724    226569.78     6.107019   -100.64278    69.391111    49.572724    435.25829    23.497663    22.152883     0.408453    435.66675    -1528.095 
    5100   -102944.83   -93531.951    228.57961    20724    226432.07    12.738095    100.46887   -133.80457    71.549979    435.11138    23.494487    22.149888   0.48191174    435.59329   -1513.4574 
    5200   -103035.32   -93514.653    231.19699    20724     226675.8   -126.36262   -169.31902   -183.94672   -25.822134    435.37791    23.499932    22.155021   0.34864671    435.72655   -1520.0661 
    5300   -102884.56   -93456.424    228.95009    20724    226540.98    31.022565   -101.57524    463.65028   -269.00734    435.40087    23.492323    22.147848    0.3371666    435.73803   -1588.3141 
    5400    -102919.4   -93477.523    229.28359    20724    226569.43    31.122673    77.827674    244.32689   -228.78655    435.24567    23.497986    22.153187   0.41476491    435.66044   -1568.1642 
    5500    -102960.5   -93453.517    230.86465    20724     226520.3    -42.51418   -158.15821     76.53729   -45.921619    435.36123     23.49232    22.147845   0.35698599    435.71821   -1590.0337 
    5600   -102898.77   -93459.148    229.22901    20724    226667.82    -4.597383    103.09605   -374.01925    257.13105    435.44302    23.497761    22.152975   0.31609249    435.75911   -1583.9196 
    5700    -102830.8   -93460.873     227.5364    20724    226532.92     46.31677   -155.81563    188.21881    106.54712    435.09865    23.500062    22.155144   0.48827465    435.58693   -1590.3038 
    5800   -102820.68   -93425.671    228.14559    20724    226672.59    1.2633784   -86.950834    63.724536    27.016433    435.34714    23.500595    22.155647    0.3640275    435.71117   -1620.7143 
    5900   -102867.28   -93386.887    230.21909    20724    226500.35   -43.461107   -110.17673   -66.677451    46.470857    435.25277    23.494212    22.149629   0.41121253    435.66399   -1662.0262 
    6000   -102876.16   -93379.793      230.607    20724    226645.62    38.183498    44.246576    219.39802    -149.0941    435.36482     23.49872    22.153879   0.35519115    435.72001   -1671.6152 
    6100    -102865.7   -93422.291    229.32097    20724     226519.9   -17.995079     59.41036    320.03429   -433.42989    435.23478    23.495711    22.151042   0.42020804    435.65499   -1630.3556 
    6200   -102770.24   -93357.162    228.58435    20724    226716.12   -12.187063       117.33   -236.13206     82.24087    435.43574    23.500461     22.15552   0.31972944    435.75547   -1691.7838 
    6300   -102851.74     -93354.6    230.62568    20724    226472.37   -37.700765   -14.445852    -389.3388    290.68236     435.2611    23.492536    22.148049   0.40705177    435.66815   -1701.8101 
    6400   -102795.21   -93312.946    230.26443    20724    226590.26     33.54648    218.01729     11.36954   -128.74739      435.284    23.498032     22.15323   0.39559936     435.6796   -1743.0256 
    6500   -102868.77    -93341.11    231.36669    20724    226587.17    29.121978    52.381066   -103.34661    138.33148    435.18433    23.500562    22.155616   0.44543704    435.62976   -1716.4821 
    6600   -102871.14   -93328.507    231.73047    20724     226494.3   -35.166156   -150.94608    299.60063   -254.15302    435.27119    23.493401    22.148864   0.40200662    435.67319    -1729.115 
    6700   -102797.05    -93317.18    230.20636    20724    226394.37   -26.578815    31.081172   -52.786252   -58.031363    434.99599    23.495647    22.150981   0.53960315     435.5356   -1743.7034 
    6800   -102805.65   -93282.121    231.26652    20724    226456.47   -47.405698   -186.30812   -39.472131    83.563157    435.24344    23.492187     22.14772   0.41587768    435.65932   -1776.7667 
    6900   -102824.09   -93269.564    232.01915    20724    226528.29    -172.9525   -176.35202   -265.13049   -77.374979    435.18076    23.497605    22.152828   0.44721845    435.62798   -1783.9116 
    7000    -102702.8   -93227.051    230.10629    20724    226489.37    12.570892   -115.59438    214.22648   -60.919426    435.23439    23.494139     22.14956   0.42040487     435.6548   -1835.9178 
    7100   -102746.11    -93220.44     231.3185    20724     226570.3    32.486001   -34.941701    36.878959    95.520744    435.17569    23.499921    22.155011   0.44975374    435.62545   -1842.9088 
    7200   -102716.75   -93250.157    229.88385    20724    226846.44    11.813259    -79.01306    -28.61527    143.06811    435.52184     23.50489    22.159696   0.27668206    435.79852   -1805.7108 
    7300   -102803.29   -93270.494    231.49163    20724    226370.96    -103.7508   -197.04977   -133.88536    19.682744    435.13451    23.490691     22.14631   0.47034261    435.60486   -1794.5624 
    7400   -102804.66   -93276.629    231.37593    20724    226768.82    50.125334    -115.7853    406.83423   -140.67293    435.10916    23.512011    22.166409   0.48302061    435.59218   -1785.7398 
    7500   -102752.14   -93241.984    230.94165    20724    226432.11    27.211755   -93.319598     169.7537    5.2011633    435.06984     23.49561    22.150947   0.50267757    435.57252   -1830.3923 
    7600   -102724.69   -93225.768    230.66904    20724    226743.31    38.130852    85.185187    -204.7005    233.90787    435.26454    23.506492    22.161206   0.40532916    435.66987   -1838.9852 
    7700   -102792.83   -93249.731    231.74175    20724    226477.67    9.2295314   -3.2674042    52.741624   -21.785626    435.11174    23.496842    22.152109   0.48172899    435.59347   -1821.6662 
    7800   -102839.56   -93270.277    232.37747    20724    226520.39   -58.457511   -109.45754   -6.3349052   -59.580086    435.15636    23.497854    22.153063   0.45942149    435.61578   -1800.2244 
    7900   -102681.42   -93240.187      229.268    20724    226494.15    109.33233     146.1167    175.72626    6.1540432    435.26266    23.493623    22.149074   0.40626754    435.66893   -1838.6464 
    8000   -102745.73   -93237.379    230.89795    20724    226582.41   -11.403268    -44.08236   -116.78812    126.66067    435.23813    23.498863    22.154013   0.41853624    435.65666   -1832.7392 
    8100   -102715.51   -93235.666    230.20565    20724    226707.26    15.997874    163.72984   -265.25478    149.51857    435.43645    23.499982    22.155069   0.31937603    435.75582   -1834.4781 
    8200   -102766.19   -93247.122    231.15813    20724    226654.82   -38.247608   -48.312458     75.41347   -141.84384     435.1026    23.506277    22.161004   0.48630067     435.5889   -1822.7408 
    8300   -102731.88   -93238.808    230.52698    20724    226479.13     3.289838   -46.355115    112.15602   -55.931392    435.44288    23.487983    22.143756   0.31616079    435.75904   -1839.5627 
    8400   -102784.84   -93205.792    232.61471    20724    226715.46    2.6662368   -20.202007    68.241457    -40.04074    435.57319    23.496718    22.151992   0.25100457     435.8242   -1869.6577 
    8500   -102707.44   -93128.024    232.62352    20724    226768.34   -46.291787   -1.4340956   -89.244788   -48.196477    435.16727    23.510416    22.164906   0.45396678    435.62123   -1941.8273 
    8600   -102625.64   -93157.553     229.9202    20724    226491.19    59.076631    78.179276   -79.773828    178.82445    435.15059    23.496495    22.151781   0.46230653    435.61289   -1925.5371 
    8700   -102826.93   -93161.519    234.71181    20724    226737.91   -84.187294   -109.45496   -269.57786    126.47094     435.3983    23.502601    22.157537   0.33844956    435.73675   -1910.0836 
    8800   -102688.57   -93121.796    232.31664    20724    226507.86   -41.267354   -163.49953    147.75935   -108.06189    435.13565    23.497763    22.152977   0.46977678    435.60542   -1959.1527 
    8900   -102707.15   -93148.777    232.11265    20724    226658.71   -52.023932    127.73949   -124.79155   -159.01974    435.26888    23.501988     22.15696   0.40315826    435.67204   -1929.7185 
    9000    -102677.6   -93087.001    232.89513    20724    226593.14     38.68548    211.54255    119.97651   -215.46262    435.46069    23.493413    22.148876   0.30725365    435.76795   -1998.9508 
    9100    -102563.7   -93065.175    230.65929    20724    226500.12     6.503298    131.11304   -28.182597   -83.420552     435.3571    23.491385    22.146963   0.35904896    435.71615   -2020.7791 
    9200   -102643.03   -93041.736     233.1548    20724    226652.28    3.8925941    73.008601    115.31741   -176.64822    435.50753    23.495215    22.150575   0.28383659    435.79136    -2041.906 
    9300   -102744.79   -93061.381    235.14899    20724    226583.81   -2.8259752    62.133986   -340.53617    269.92425    435.50693    23.491682    22.147244   0.28413556    435.79106   -2024.4902 
    9400    -102586.6   -93054.273    231.48007    20724    226587.31   -43.863869   -106.96005    71.614616   -96.246171    435.49752    23.492117    22.147654    0.2888382    435.78636   -2029.9624 
    9500   -102515.55   -92997.005    231.14547    20724    226591.77     56.83306    -111.7644    28.940228    253.32335    435.44189    23.493849    22.149287   0.31665649    435.75854   -2091.5926 
    9600   -102584.09   -93039.665    231.77393    20724     226677.6   -44.294238   -153.90938   -66.280772    87.307435    435.38125    23.499935    22.155024   0.34697602    435.72822   -2044.4937 
    9700   -102534.18   -93033.994    230.69972    20724     226517.1    31.161378    214.46433   -23.409186    -97.57101    435.33818    23.492776    22.148275   0.36851216    435.70669    -2059.398 
    9800   -102658.01   -93029.252    233.82186    20724    226614.68   -77.752632   -141.09044   -36.166193   -56.001263    435.40538    23.496022    22.151335   0.33490816    435.74029   -2058.4879 
    9900   -102548.84   -92979.533    232.37806    20724    226423.75    27.979636    11.704477   -33.782378    106.01681    435.28367    23.489405    22.145097   0.39576623    435.67943   -2117.7589 
   10000   -102552.28   -92974.081    232.59397    20724    226510.83  -0.65919411    88.413771   -114.70672    24.315365    435.48597    23.488464     22.14421   0.29461585    435.78058   -2120.2936 
   10100   -102623.81   -92961.925    234.62627    20724    226470.83    28.442094    114.04546   -214.83864    186.11947    435.42307    23.488087    22.143854   0.32606637    435.74913   -2137.4262 
   10200   -102630.01   -92981.751     234.2953    20724    226471.37   -33.122663    -188.4248   -84.365953    173.42276    435.07178    23.497595    22.152818   0.50170922    435.57349   -2116.3623 
   10300   -102523.64   -92928.458    233.00639    20724    226623.58    40.177373    210.58605   -62.903587   -27.150346    435.17302    23.502755    22.157683   0.45109115    435.62411   -2170.7034 
   10400   -102435.15   -92915.959    231.16127    20724    226510.72    15.267507    14.814929   -151.17771     182.1653    435.18218    23.496655    22.151932   0.44650856    435.62869   -2181.9865 
   10500   -102549.25   -92870.073     235.0461    20724    226561.83   -14.666193   -116.32621   -19.366618    91.694251    435.29694    23.496208    22.151511   0.38912804    435.68607   -2227.1434 
   10600   -102511.44   -92921.363    232.88249    20724    226458.19    51.033763   -100.65265   -150.80119    404.55513     435.1314    23.495301    22.150656   0.47190044     435.6033   -2183.4258 
   10700   -102493.44   -92880.568    233.43607    20724    226762.16     17.27415    103.02802    1.2455337   -52.451102    435.44661    23.502553    22.157493   0.31429472    435.76091   -2214.7903 
   10800   -102480.64   -92824.827    234.47893    20724    226567.51   -9.3000517   -131.80378    33.709987    70.193643    435.27051    23.497216    22.152461   0.40234697    435.67285   -2276.0608 
   10900   -102405.11   -92799.981     233.2481    20724    226511.92    37.795673    145.00604    87.125081    -118.7441    435.05243    23.500221    22.155294   0.51138663    435.56381   -2303.7385 
   11000   -102464.35   -92837.478    233.77594    20724    226769.45    117.08382    200.94847   -178.07204    328.37503    435.14443     23.51109    22.165541   0.46538671    435.60981   -2265.6233 
   11100   -102357.73   -92793.739    232.24895    20724    226464.43    16.066132   -72.871442   -58.649606    179.71944    434.97408    23.499873    22.154966   0.55055771    435.52464   -2313.2116 
   11200   -102423.76   -92742.575    235.09485    20724    226636.72    85.704739    225.81732    303.22722   -271.93032    435.05498    23.506625    22.161332   0.51011166    435.56509   -2364.3362 
   11300   -102360.77   -92769.907     232.9016    20724    226505.08   -36.263176   -32.176841    55.757641   -132.37033    435.02125    23.500708    22.155753   0.52697418    435.54823   -2337.0778 
   11400   -102402.43   -92745.609    234.50332    20724    226666.94    70.528473    66.345182   -13.635904    158.87614    434.99421    23.509834    22.164357   0.54049391    435.53471   -2361.4866 
   11500   -102374.27   -92708.892    234.71109    20724    226460.66    1.0954773    67.194058    55.151067   -119.05869    435.01065     23.49869    22.153851   0.53227288    435.54293     -2401.87 
   11600   -102342.62   -92720.174     233.6686    20724    226464.78    40.221782   -22.973498    275.32734    -131.6885    435.01632    23.498751    22.153908   0.52943925    435.54576   -2393.4076 
   11700    -102268.7   -92690.858    232.58536    20724    226637.14    21.758396   -77.090971   -41.701119    184.06728    435.22275    23.502116     22.15708    0.4262258    435.64897   -2417.8926 
   11800   -102339.23     -92694.5    234.20981    20724    226436.07   -66.323042    169.19651   -348.91989   -19.245746    435.11785     23.49452    22.149919   0.47867474    435.59653   -2415.7828 
   11900   -102372.83   -92693.118    235.05913    20724    226531.53   -24.711048   -35.835047   -69.677968     31.37987    435.05881    23.501066    22.156091   0.50819538      435.567   -2419.4003 
   12000   -102317.71   -92668.777    234.31177    20724    226448.09    125.46575   -14.194187     370.3797    20.211739    435.12421    23.494971    22.150345   0.47549306    435.59971    -2455.762 
   12100   -102233.73    -92612.16    233.64737    20724    226603.31     25.26191    202.51437   -21.736955   -104.99168    435.33693     23.49728    22.152521   0.36913706    435.70606   -2504.0167 
   12200      -102424   -92600.811    238.54343    20724    226596.63   -52.621172   -2.7473762   -201.14365     46.02751    435.33689    23.496934    22.152195   0.36915718    435.70604    -2512.421 
   12300   -102312.03   -92590.039    236.08599    20724    226398.49   -12.940461   -156.26256    194.41267   -76.971488    434.84825    23.499851    22.154945   0.61347467    435.46173   -2532.3062 
   12400   -102208.05   -92631.147    232.56269    20724    226260.74     37.77566    -44.28835    225.34232   -67.726986    434.81014    23.493731    22.149175   0.63252853    435.44267   -2498.8276 
   12500   -102204.66   -92589.987    233.47977    20724    226444.35    9.4296146   -6.3893526    54.630122   -19.951925    434.96797    23.498997     22.15414   0.55361603    435.52158   -2532.8619 
   12600      -102269   -92587.613    235.09977    20724    226236.73    22.920985    151.15442    12.246888   -94.638357    434.80684    23.492573    22.148084   0.63418224    435.44102   -2544.8278 
   12700   -102217.69   -92588.434    233.83397    20724    226382.26    6.5002646    -66.08712    74.277759    11.310155    434.66283    23.504021    22.158876   0.70618572    435.36901   -2538.9378 
   12800   -102268.89   -92537.455    236.31522    20724    226294.37    -13.19835    215.91084   -229.31825   -26.187641    434.66063    23.499517     22.15463   0.70728352    435.36792    -2593.339 
   12900   -102176.68   -92553.439    233.68784    20724    226324.97    62.450308   -32.399361    119.00055    100.74973    434.50013    23.505446     22.16022   0.78753328    435.28767   -2579.0989 
   13000   -102208.85   -92528.854    235.06601    20724    226255.28    46.308224   -67.831675    100.01781    106.73854    434.51838    23.501333    22.156343   0.77840761    435.29679   -2607.8951 
   13100   -102172.89   -92542.412    233.86349    20724    226276.38    15.348864    44.690083    101.00032    -99.64381     434.7391    23.496462     22.15175   0.66804783    435.40715   -2590.5213 
   13200   -102118.65   -92483.789    233.97004    20724    226379.41   -53.544028     25.61232   -25.450613   -160.79379    434.41041      23.5107    22.165173   0.83239338    435.24281    -2645.742 
   13300   -102180.36   -92414.985    237.13932    20724    226255.17    21.921145     177.0644    40.249226   -151.55019    434.22011    23.509398    22.163946   0.92754721    435.14765   -2722.6255 
   13400   -102134.59   -92411.156    236.12093    20724    226386.35    43.179047    110.67469    139.37212   -120.50967    434.25434    23.515285    22.169496    0.9104312    435.16477   -2723.7169 
   13500   -102076.83   -92406.614    234.82858    20724    226291.42    78.122125    224.82477   -84.669069    94.210679    434.44113      23.5053    22.160082    0.8170369    435.25816   -2734.9022 
   13600   -102113.69   -92359.482    236.86826    20724    226405.82    31.703846    30.365251    18.204546     46.54174    434.54509    23.508428    22.163031   0.76505479    435.31015   -2777.5134 
   13700   -102083.02   -92382.546    235.56335    20724    226028.24   -26.186559    36.946078    -57.13067   -58.375086    434.04493    23.502346    22.157298    1.0151354    435.06006   -2762.5601 
   13800    -102072.1   -92406.367    234.71978    20724    226244.55    46.300424     81.66575    198.60685   -141.37133    434.22341    23.508757    22.163341   0.92589654     435.1493   -2738.4107 
   13900   -102134.49   -92419.414    235.91799    20724    226218.65    72.628751     25.81882    84.325528     107.7419     434.1024    23.510687    22.165161   0.98639816     435.0888   -2728.4522 
   14000   -102151.03   -92405.204    236.66472    20724    226196.97   -49.065764   -156.06596     274.7559   -265.88723    434.09009    23.509894    22.164413   0.99255708    435.08264   -2737.7202 
   14100    -102152.7   -92399.885    236.83437    20724     226303.5   -47.684706    90.849183   -134.25853    -99.64477    434.10798    23.514945    22.169175   0.98361071    435.09159   -2741.0634 
   14200   -102125.23   -92361.322     237.1039    20724     226231.3   -43.598585    27.558871   -30.435126    -127.9195     434.0155    23.513698       22.168    1.0298504    435.04535   -2782.5474 
   14300   -102044.51   -92372.734    234.86659    20724    226088.65    24.403168   -24.142347   -44.218812    141.57066    433.97541    23.507369    22.162033    1.0498929    435.02531   -2778.1862 
   14400   -102134.97   -92397.518    236.46137    20724     226086.1    58.795929    137.69646    7.6388336    31.052489    434.00709    23.506379    22.161099    1.0340537    435.04115    -2757.633 
   14500   -102121.74    -92371.34    236.77583    20724    226278.01   -67.941161   -177.24132   -405.71732    379.13515    434.23654    23.510139    22.164645   0.91932755    435.15587    -2774.276 
   14600   -102160.46    -92392.87    237.19327    20724     226140.1   -80.909049   -67.178026   -72.221687   -103.32743    433.94553    23.510853    22.165318    1.0648344    435.01037    -2756.899 
   14700    -102151.4    -92357.74    237.82633    20724    226175.28   -80.511591    12.411842   -115.73298   -138.21364    434.14519    23.507275    22.161944   0.96500683    435.11019   -2791.2303 
   14800   -102206.41   -92344.251    239.48964    20724    226193.68    3.8882726    27.865799   -37.454578    21.253596    434.39741    23.501405    22.156411   0.83889661     435.2363   -2810.1704 
   14900   -102049.56   -92284.049     237.1427    20724    226178.74    -6.817815   -53.629811    60.503752   -27.327386    434.42103     23.49999    22.155076   0.82708604    435.24811   -2869.0446 
   15000   -102160.46   -92299.288    239.46563    20724    226187.95   -54.423071   -116.20454   -52.891276    5.8265998    434.44487    23.499824    22.154919    0.8151637    435.26004   -2854.3534 
   15100   -102153.96   -92292.486    239.47295    20724     226212.8   -26.085086   -52.593418    24.126219   -49.788058    434.46968    23.500444    22.155504   0.80276123    435.27244   -2862.0061 
   15200   -102123.79   -92282.088    238.99288    20724    226213.85     107.3981    97.998299    390.15542   -165.95942    434.40798    23.502167    22.157129   0.83360965    435.24159   -2881.5357 
   15300   -101958.02   -92300.249     234.5265    20724     226078.7    82.057118    198.65794    110.23782   -62.724408    434.05077    23.504812    22.159622    1.0122166    435.06298   -2863.4257 
   15400   -102059.63    -92281.96    237.43795    20724    226246.67    26.267748   -134.77923   -144.52797    358.11044    434.25535    23.508003     22.16263   0.90992687    435.16527   -2877.2278 
   15500   -101981.96   -92252.993    236.25532    20724    226142.58    70.142427    142.96918    51.998458    15.459643    434.28599    23.501765     22.15675   0.89460347     435.1806    -2911.745 
   15600   -102041.91   -92266.894    237.37344    20724    226430.18   -17.422106   -174.21383   -82.714828    204.66234    434.17624    23.519677    22.173636   0.94947827    435.12572   -2888.2998 
   15700   -102091.77   -92241.835    239.19281    20724    226307.14    -83.05433    20.658541   -123.19187   -146.62967    434.54059    23.503426    22.158315     0.767307    435.30789   -2914.8438 
   15800    -102004.7   -92238.222     237.1661    20724    226440.19   -29.797493    40.951688   -42.712817   -87.631348    434.64881    23.507406    22.162068   0.71319259    435.36201   -2916.6099 
   15900   -102034.68   -92225.381    238.20609    20724    226418.11   -60.345434    26.520297    10.765857   -218.32246    434.61777      23.5071    22.161779   0.72871615    435.34648   -2930.7094 
   16000   -101959.99   -92217.057    236.59439    20724    226423.21    43.809257    1.1111033   -25.884402    156.20107    434.79267    23.502636    22.157571   0.64126415    435.43394   -2942.6669 
   16100   -102041.78    -92215.62    238.61558    20724     226434.4    79.328629    84.261892    53.938494    99.785499    434.82539    23.502333    22.157285   0.62490513    435.45029   -2949.3088 
   16200   -102015.28   -92218.276    237.90755    20724    226189.83   -64.649895   -304.76936    145.37092   -34.551243    434.31586    23.503412    22.158302    0.8796717    435.19553   -2946.8095 
   16300   -101970.58   -92191.299    237.47714    20724    226346.38     2.127698    8.2776565    -40.89802    39.003457    434.57465    23.504542    22.159368   0.75027583    435.32492   -2973.4405 
   16400    -101952.3   -92174.768    237.43458    20724     226117.6    27.132035   -19.065335    50.132136    50.329303    434.43251    23.496504    22.151789    0.8213457    435.25385   -2999.0648 
   16500   -101988.31   -92137.524    239.21357    20724    226204.82    18.313024   -64.686394    44.819273    74.806194    434.45786    23.500349    22.155415   0.80867211    435.26653    -3034.396 
   16600   -101891.79   -92139.433     236.8234    20724    226157.91    7.1950345   -92.567628   -137.10148    251.25421    434.62771     23.49332    22.148788   0.72374514    435.35145   -3035.2736 
   16700   -102022.65   -92117.933    240.52313    20724    226159.21   -75.007032    24.154597      130.223   -379.39869    434.59997    23.494138    22.149559   0.73761532    435.33758   -3053.9222 
   16800   -101973.49   -92112.194    239.46881    20724    226018.35    -70.33336   -9.6877009   -95.707454   -105.60493    434.40901    23.491982    22.147526   0.83309549     435.2421   -3063.6943 
   16900   -101953.38   -92115.982    238.88836    20724    226283.47   -15.387534   -114.04979    79.365665   -11.478472    434.39575    23.506115     22.16085   0.83972521    435.23547   -3056.7522 
   17000   -101974.18   -92105.305    239.65283    20724    226141.92   -54.194016     43.36397   -138.94245   -67.003571    434.52078     23.49538     22.15073    0.7772113    435.29799    -3070.639 
   17100   -101960.54   -92088.923    239.71942    20724    226233.68    5.4513168    31.855918   -196.44674    180.94477    434.56844    23.498858    22.154009   0.75337839    435.32182   -3087.8329 
   17200   -101902.33    -92058.33    239.04861    20724    226495.96    37.852034   -145.11379    84.770437    173.89945    434.80868    23.505979    22.160722   0.63326206    435.44194   -3112.3384 
   17300   -101951.97   -92058.371    240.25316    20724    226555.17   -30.523183    34.209019    -245.4336    119.65503     434.7472    23.510714    22.165186   0.66400099     435.4112   -3110.3034 
   17400   -101873.53   -92050.218    238.54644    20724    226213.13    34.161943     29.79079    202.48838   -129.79335    434.61807    23.496449    22.151737   0.72856465    435.34664   -3130.9528 
   17500   -101898.47   -92059.568    238.92483    20724    226276.51   -26.512131    48.789453    104.91016     -233.236    434.60991    23.499961    22.155049   0.73264608    435.34255   -3119.5053 
   17600    -101922.5   -92034.211     240.1242    20724    226385.13    -19.84716    203.48552    193.37217   -456.39917    434.61974    23.505335    22.160115   0.72772991    435.34747   -3142.0106 
   17700   -101891.99   -92027.442    239.54758    20724    226269.16   -74.812667   -132.95295   -87.567421    -3.917627    434.85292    23.493012    22.148498   0.61114055    435.46406   -3150.3575 
   17800   -101857.79   -91993.089    239.55147    20724    226446.06    14.149616    133.13284   -144.51852    53.834521    435.00375    23.498119    22.153313   0.53572694    435.53947   -3186.1571 
   17900   -101801.85   -91985.662    238.37344    20724    226171.27 -0.047744061    42.947095    63.302392   -106.39272    434.61137    23.494456    22.149859    0.7319157    435.34328   -3201.4941 
   18000   -101897.06   -92025.919    239.70793    20724     226270.4    2.0304391    39.317875   -216.30721    183.08065    434.52312    23.501991    22.156962   0.77604178    435.29916   -3158.9046 
   18100   -101839.38   -92019.957    238.45197    20724     226269.3    55.842562    135.99728   -32.758476    64.288886    434.71056    23.496866    22.152131   0.68231922    435.39288    -3168.477 
   18200   -101884.54   -92019.254    239.56557    20724    226447.85    5.9066218    64.151216   -210.22635      163.795    434.79814    23.503767    22.158637   0.63852934    435.43667   -3165.3191 
   18300    -101889.8   -92014.818    239.80095    20724    226270.98   -37.407478    -146.9887   -3.9325423    38.698808    434.32457    23.507392    22.162054   0.87531559    435.19988    -3171.077 
   18400   -101938.48   -91981.413    241.79447    20724    226349.17    -30.32941   -13.254334   -356.70241    278.96852    434.37706    23.510033    22.164544   0.84906889    435.22613   -3204.1244 
   18500    -101715.8   -91990.409    236.16844    20724    226307.51   -21.991497    156.21821   -233.87612    11.683419    434.35722    23.508405     22.16301   0.85898765    435.21621   -3196.0655 
   18600   -101897.18   -91975.738    240.92927    20724    226378.89   -14.983693    64.828991    120.48521   -230.26528    434.49363    23.508421    22.163025   0.79078257    435.28442   -3213.2362 
   18700   -101840.38   -91984.882    239.32794    20724    226332.08   -25.792383    58.021193   -100.16938   -35.228966     434.5989    23.503144     22.15805   0.73814964    435.33705   -3204.9276 
   18800   -101858.44   -91957.932    240.42106    20724    226320.21    15.089209   -61.231179    271.00233   -164.50352    434.30427    23.510498    22.164983   0.88546465    435.18974   -3233.9955 
   18900   -101827.07   -91951.005    239.82727    20724    226286.11   -27.936543     142.3963   -121.50279   -104.70313    434.48704    23.503782    22.158651      0.79408    435.28112   -3241.5398 
   19000   -101821.11   -91940.808    239.93014    20724    226317.61    54.717891    134.14641    87.163158   -57.155894    434.26668     23.51138    22.165815   0.90425879    435.17094   -3256.8016 
   19100   -101805.75   -91905.223     240.4214    20724    226436.89   -8.4941616    225.77248   -56.183581   -195.07138    434.36852    23.514818    22.169056   0.85333821    435.22186    -3284.996 
   19200      -101828   -91975.095    239.26487    20724    226247.48   -18.563291    131.38851   -96.748944   -90.329434    434.25342    23.508097    22.162719   0.91088897    435.16431    -3222.573 
   19300   -101843.81   -91961.187    239.98664    20724    226260.24    46.034341    -1.331516    128.73621    10.698332    434.19492    23.510343    22.164837   0.94013923    435.13506   -3240.5719 
   19400   -101815.17   -91980.673    238.81789    20724    226330.22    33.976736     72.48304    175.29272   -145.84556     434.3359    23.510162    22.164666   0.86965085    435.20555   -3217.4919 
   19500   -101678.58   -91926.178    236.82437    20724    226314.52    54.224044    18.078292    128.19298    16.400863    434.58791    23.502529     22.15747    0.7436471    435.33155   -3272.8675 
   19600   -101746.31   -91903.185    239.02737    20724    226104.11    60.046981    245.45666   -265.95943    200.64371     434.0981    23.504851    22.159659   0.98855189    435.08665   -3304.3404 
   19700    -101832.9   -91923.026    240.64837    20724    226248.08   -9.7143983    -130.4552    -367.8712    469.18321    434.21451    23.509181    22.163741   0.93034271    435.14486   -3278.1973 
   19800   -101693.37   -91892.824    237.99339    20724    226162.63   -38.993511   -69.155259    25.066942   -72.892217    434.07411    23.508542    22.163139    1.0005445    435.07466   -3310.1753 
   19900   -101848.14   -91897.101    241.64807    20724    226238.58    13.330678    -19.42994     232.2818   -172.85982    434.20819    23.508858    22.163437    0.9335054    435.14169   -3309.9821 
   20000   -101840.76   -91873.455    242.04302    20724     226122.4   -86.075307    32.910316   -132.20462   -158.93162    434.16468    23.503999    22.158856   0.95526062    435.11994   -3331.8697 
   20100   -101825.53   -91855.706    242.10411    20724    226436.38   -59.246115    63.959733   -257.82782    16.129747    434.02904    23.523986    22.177699    1.0230786    435.05212   -3342.2583 
   20200   -101639.21   -91872.332    237.17596    20724    226179.28    44.809319   -2.5205402   -89.092624    226.04112    434.06625     23.50962    22.164155    1.0044772    435.07072   -3337.9566 
   20300   -101671.84   -91868.674    238.05708    20724    226401.13    57.542777   -134.40801    182.25201    124.78434    434.22241    23.516918    22.171035   0.92639567     435.1488    -3337.858 
   20400   -101704.84   -91876.474    238.66909    20724    226072.37    21.225754    182.92127   -51.359943   -67.884066    433.75558    23.512479    22.166851    1.1598095    434.91539    -3339.095 
   20500   -101819.92   -91856.826    241.94083    20724    226133.33    31.891361    31.603899    78.797507   -14.727321      434.066    23.507239     22.16191    1.0045993     435.0706   -3360.3572 
   20600   -101732.09   -91810.052    240.94372    20724    226037.28   -35.901158    -111.0562   -66.964961    70.317688    433.85689    23.507909    22.162542     1.109154    434.96605   -3407.1358 
   20700   -101753.65   -91860.049    240.25331    20724    226101.05    17.107886   -19.586201    17.742778    53.167081     434.0668     23.50554    22.160308    1.0042017      435.071    -3357.881 
   20800   -101687.51   -91827.509    239.43717    20724    225835.28    -42.48218   -145.74603   -243.71548    262.01497    433.67272    23.502392     22.15734    1.2012377    434.87396   -3396.3198 
   20900   -101738.32   -91786.456    241.66796    20724    226108.81    14.514344   -53.806324   -77.017262    174.36662    433.75304    23.514443    22.168702    1.1610814    434.91412   -3434.2691 
   21000    -101690.7   -91818.625    239.73037    20724     225960.6   -33.147945    153.25623     26.11385   -278.81391    433.98815    23.500366    22.155431    1.0435236    435.03168   -3404.2995 
   21100   -101619.38   -91748.959    239.69024    20724    225900.72    56.772446   -51.987838    297.34173   -75.036551    433.78493    23.502756    22.157684    1.1451347    434.93007   -3482.0631 
   21200   -101659.18   -91712.039    241.55344    20724    226046.31   -31.953034   -5.1627629   -20.728106   -69.968232    433.90254    23.507142    22.161819    1.0863311    434.98887   -3512.0206 
   21300   -101653.36     -91702.5    241.64371    20724    226041.06   -19.667209   -82.317071   -157.10845    180.42389    433.65174    23.513666    22.167969    1.2117321    434.86347   -3522.8001 
   21400   -101695.13   -91753.354    241.42301    20724    226204.32   -12.510528   -84.602247    -98.30975    145.38041     433.8702    23.516233    22.170389    1.1024991     434.9727   -3469.7797 
   21500   -101678.91   -91757.008    240.94045    20724    225923.55    14.467392   -78.173129    119.03792    2.5373823    433.77643    23.504174     22.15902    1.1493839    434.92582   -3475.5701 
   21600   -101773.92   -91767.928    242.98255    20724    225953.18   -44.934391    39.903561     173.9493   -348.65603    433.86459    23.503327    22.158222    1.1053065    434.96989   -3463.6267 
   21700   -101686.75   -91722.261    241.97463    20724    225832.61   -41.949693   -122.65653    148.07672   -151.26927    433.60535    23.504078     22.15893    1.2349271    434.84027   -3514.4265 
   21800   -101714.39   -91746.546    242.05611    20724    225663.06    36.254808    87.701299    32.484097   -11.420971    433.54863     23.49679     22.15206    1.2632872    434.81191   -3498.4586 
   21900    -101609.1   -91731.939    239.85411    20724    225727.92   -16.779085    136.79874   -132.71186   -54.424139     433.5369    23.500485    22.155543    1.2691479    434.80605   -3508.8645 
   22000   -101694.42   -91734.578    241.86181    20724    225786.37   -18.796436    9.2256565    31.455744   -97.070708    433.48076    23.505049    22.159845    1.2972177    434.77798    -3507.219 
   22100   -101642.72   -91713.016     241.1298    20724    225879.47   -110.48163   -144.14664   -86.875594   -100.42266    433.34242    23.513647    22.167951    1.3663909    434.70881    -3520.235 
   22200   -101647.76   -91734.184    240.73819    20724     225838.4    160.38583    51.386874    136.85591    292.91472    433.24766     23.51408     22.16836    1.4137682    434.66143   -3517.2729 
   22300   -101596.58   -91686.771    240.64668    20724    225900.26   -16.531541    5.7638177   -19.508219   -35.850222    433.44047    23.512069    22.166464    1.3173662    434.75783   -3554.0849 
   22400   -101623.34   -91674.849    241.58614    20724    225908.71    29.912954    78.416307    180.80394   -169.48138    433.38859    23.513916    22.168205    1.3433074    434.73189   -3567.9401 
   22500   -101656.88   -91647.296    243.06965    20724    226035.07   -24.434721   -98.776113    197.77218   -172.30023    433.50037    23.517459    22.171545    1.2874169    434.78778   -3591.3101 
   22600   -101659.08   -91621.279    243.75499    20724    226228.49    9.0372268    39.661988   -181.48547    168.93516    433.85072    23.518017    22.172072      1.11224    434.96296   -3613.3769 
   22700    -101570.7   -91630.826    241.37697    20724    225952.75    21.540594    22.352138   -109.02904    151.29868    433.62751    23.509729    22.164258    1.2238464    434.85135   -3613.5025 
   22800   -101542.66   -91562.363    242.35852    20724    226060.31    60.618117   -23.310568      88.7724    116.39252    433.43279    23.520605    22.174512    1.3212034      434.754   -3682.5864 
   22900   -101461.38   -91568.532    240.23494    20724    226191.65    66.755779    207.92176    55.517091   -63.171518      433.959    23.513168      22.1675    1.0580999     435.0171   -3671.1917 
   23000   -101502.09   -91528.179    242.20342    20724    226260.29    36.093262    82.626659     27.44887   -1.7957426    434.06658    23.513821    22.168116    1.0043115    435.07089   -3709.7078 
   23100   -101469.66    -91523.69    241.52484    20724    226088.31    10.959299   -120.74378    70.705094    82.916582    433.64255    23.516372    22.170521    1.2163274    434.85887   -3717.8858 
   23200   -101609.37   -91586.373    243.39531    20724    225882.52   -126.10682   -195.80091   -173.16984   -9.3497076    433.73607    23.503133    22.158039    1.1695661    434.90563   -3658.0073 
   23300   -101521.11   -91559.378     241.9076    20724    225930.24    64.235774   -76.030889     366.6079   -97.869687    433.70669    23.506412     22.16113    1.1842574    434.89094    -3691.945 
   23400   -101519.45   -91594.229    241.02114    20724    225952.81    78.683381    138.28378    227.06229   -129.29593    433.69802    23.507821    22.162459     1.188592    434.88661   -3658.3043 
   23500      -101470   -91568.255    240.45092    20724    225957.32   -28.251055    119.78254   -123.14372   -81.391985     433.6975    23.508069    22.162693      1.18885    434.88635   -3680.1875 
   23600   -101539.44   -91551.701     242.5392    20724    226072.32    54.567808    60.950735   -26.041785    128.79448    433.79423    23.511429     22.16586    1.1404853    434.93471   -3699.7599 
   23700   -101510.43   -91559.258    241.65129    20724    226151.98    8.0237963   -109.58303   -106.47977    240.13419    433.56726    23.521725    22.175568    1.2539704    434.82123   -3688.0532 
   23800   -101459.62   -91515.836    241.47189    20724    225950.21    27.579371    69.537619   -22.540712    35.741207    433.67861    23.508212    22.162827    1.1982951     434.8769   -3738.5732 
   23900   -101468.09   -91529.841    241.33732    20724    226177.78    8.4815065   -46.988943    106.16375   -33.730291    433.61346    23.521814    22.175651    1.2308713    434.84433   -3717.4468 
   24000   -101394.83   -91473.367    240.92971    20724    226082.83    12.026874   -11.682598    169.42998   -121.66676    433.67938    23.515089    22.169311    1.1979088    434.87729   -3779.6683 
   24100   -101446.73   -91489.843     241.7901    20724    225976.47    25.732054    -157.5548    295.39982   -60.648864    433.69923    23.509019    22.163588    1.1879837    434.88722   -3767.1022 
   24200   -101364.34   -91446.648    240.83811    20724     225803.3    4.7750937      144.686   -37.001551   -93.359163    433.40181    23.508071    22.162695    1.3366969     434.7385   -3815.9178 
   24300   -101504.15     -91482.6    243.36032    20724    225920.55   -32.173135    33.812306    176.10231   -306.43402    433.37451    23.514914    22.169146    1.3503436    434.72486   -3777.4885 
   24400   -101435.15   -91449.497    242.48849    20724    225992.67    9.1185585   -10.933862   -41.135799    79.425336    433.68569    23.510228    22.164728    1.1947549    434.88045   -3809.1889 
   24500   -101433.25   -91440.696    242.65611    20724    225742.89    10.704764    63.944782    212.00514   -243.83563     433.4314    23.504124    22.158973     1.321902     434.7533     -3828.92 
   24600   -101394.25    -91382.19    243.12988    20724     225930.6   0.54563418   -111.06948   -15.579825     128.2862    433.81581    23.503474    22.158361    1.1296953     434.9455    -3880.755 
   24700   -101414.33   -91408.373    242.98161    20724    225993.48   -6.8250083   -160.37403    51.386128     88.51288    433.80952    23.506915    22.161605    1.1328377    434.94236    -3852.188 
   24800   -101420.92   -91426.321    242.70589    20724    225780.16    3.9928152   -42.324586    51.564911      2.73812    433.47143    23.504979    22.159779    1.3018854    434.77331   -3842.4858 
   24900   -101382.26   -91400.895    242.38447    20724    225972.51   -26.099408   -34.456389   -0.9479225   -42.893912    433.32498    23.518962    22.172962    1.3751079    434.70009   -3861.2953 
   25000   -101394.44   -91359.754    243.67929    20724    226017.22     -19.0087    46.753459    149.49159   -253.27115    433.65754    23.512268    22.166652    1.2088279    434.86637   -3902.9988 
   25100   -101409.04   -91419.278    242.58846    20724    226003.13    35.371917    217.41448   -163.91439     52.61566    433.75007    23.509028    22.163597    1.1625649    434.91264   -3848.2944 
   25200   -101380.18   -91390.613    242.58372    20724    226023.12    29.788673    106.38675   -45.061577    28.040847    433.83598    23.507739    22.162382    1.1196087    434.95559   -3877.0302 
   25300   -101392.94   -91381.831    243.10679    20724    226220.48    61.746759   -160.09833    39.193837    306.14477    433.68342    23.522137    22.175955    1.1958892    434.87931   -3883.2402 
   25400   -101387.09   -91356.595    243.57749    20724     225961.1    67.906258   -10.565629   -33.842928    248.12733    433.55134    23.512228    22.166614    1.2619316    434.81327   -3918.0627 
   25500   -101393.07   -91340.467    244.11448    20724    225937.26    -5.444926    25.979962   -81.463912    39.149173    433.79542    23.504372    22.159208     1.139888    434.93531   -3934.5262 
   25600   -101405.29    -91355.35    244.04961    20724    226165.06   -94.251553   -77.251246    69.670512   -275.17392    434.02411    23.510022    22.164534    1.0255433    435.04966   -3907.3847 
   25700   -101279.36   -91315.084    241.96939    20724    226042.47   -106.79338   -215.16597    138.30646   -243.52064    433.99312    23.504489    22.159318    1.0410388    435.03416   -3950.4512 
   25800   -101272.99   -91315.065    241.81532    20724    225900.46   -2.8592535   -199.81954    287.84642    -96.60464    433.49635    23.510564    22.165045    1.2894242    434.78578   -3960.4578 
   25900   -101354.31   -91274.814    244.76747    20724    225982.82   -66.502999    1.4716885   -228.53015    27.549466     433.6963    23.509428    22.163974    1.1894483    434.88575    -3999.514 
   26000   -101242.82   -91296.405    241.53563    20724    226025.79    80.980631    175.19937    4.5112363    63.231289    434.04378     23.50225    22.157207    1.0157103    435.05949   -3982.3106 
   26100   -101286.22    -91306.26    242.35023    20724    225871.99    81.975927   -30.923518   -125.62986    402.48116     433.6677    23.504438    22.159269    1.2037486    434.87145     -3978.65 
   26200   -101233.84   -91258.727    242.23261    20724    225991.61    82.944604   -9.7238831    163.52241    95.035286    433.76858    23.507927    22.162559    1.1533123    434.92189   -4023.6257 
   26300   -101412.35   -91331.645    244.79687    20724    226007.92    85.968029   -62.782083    70.932846    249.75332    433.58755    23.513682    22.167985    1.2438234    434.83138   -3954.5191 
   26400   -101369.28   -91314.951    244.15628    20724     225969.7   -117.03479   -37.499595   -103.59159   -210.01317    433.70917    23.508397    22.163002    1.1830143    434.89219   -3963.5102 
   26500   -101274.07   -91337.736    241.29095    20724    225891.46   -27.439065   -156.21908    135.52892   -61.627034    433.47767    23.510603    22.165081    1.2987656    434.77643   -3947.3696 
   26600   -101312.83   -91343.921    242.08186    20724    225813.08    78.987172    154.01102    106.20275   -23.252254    433.47151     23.50669    22.161393    1.3018446    434.77336   -3949.4244 
   26700   -101364.54   -91382.473    242.40153    20724    226029.71     -11.0159    52.570525   -123.54919     37.93096    433.62289    23.513858     22.16815    1.2261546    434.84905   -3904.5435 
   26800   -101427.49   -91377.583    244.04878    20724    225884.73   -5.2067779   -17.909295   -138.90361    141.19257    433.42703    23.511626    22.166046     1.324086    434.75111   -3912.9654 
   26900   -101344.85    -91346.44     242.7983    20724    226012.04    59.567586   -70.042893    240.51192    8.2337354    433.71539    23.510431     22.16492    1.1799074    434.89529    -3943.676 
   27000   -101414.11   -91334.622    244.76736    20724    226063.04   -36.264748 -0.018951058   -10.063192   -98.712102     433.6838    23.513939    22.168227    1.1956976     434.8795   -3951.2718 
   27100   -101357.08   -91300.696    244.20605    20724    225953.02    22.401869   -4.3209555    24.871458    46.655105    433.51252     23.51286     22.16721     1.281342    434.79386   -3993.1927 
   27200   -101350.12   -91260.409    245.01541    20724    226201.76   -5.1404176     48.81043    8.0101281   -72.241811    433.87334    23.516015    22.170184    1.1009321    434.97427   -4025.6656 
   27300   -101268.65   -91266.674    242.88489    20724    226054.85   -39.373962   -13.181489   -13.773259   -91.167138    433.73005     23.51226    22.166644    1.1725767    434.90262   -4021.6173 
   27400   -101320.21   -91257.785    244.35283    20724    225991.54    -5.622811    51.750037    79.636427    -148.2549     433.7886     23.50738    22.162044     1.143302     434.9319   -4036.2942 
   27500   -101231.61   -91253.163    242.31362    20724    226023.37    35.244704   -80.811352      155.375    31.170467    433.64449    23.512942    22.167287     1.215356    434.85984   -4041.3746 
   27600   -101337.01   -91222.585    245.61571    20724    226098.38   -46.859277   -22.311713    46.324179    -164.5903    433.39661    23.523568    22.177304    1.3392962     434.7359   -4067.6888 
   27700   -101259.66    -91245.87    243.17195    20724    225937.23    50.540393    49.292794    -83.95477    186.28316    433.38867    23.515398    22.169602    1.3432645    434.73194   -4054.9578 
   27800   -101277.84     -91256.9    243.34559    20724    226054.38   -18.882307   -43.383498   -127.03656    113.77314    433.79315    23.510525    22.165008    1.1410226    434.93418   -4037.0997 
   27900    -101179.7   -91239.948     241.3739    20724    225859.99    63.568986    27.128868    68.017857    95.560233    433.36518    23.512016    22.166414    1.3550122    434.72019   -4065.6653 
   28000   -101191.38   -91212.037    242.33525    20724    226108.89    34.964402    33.431111   -268.51268    339.97478    433.91147    23.510154    22.164658    1.0818653    434.99333   -4086.8459 
   28100   -101248.85   -91210.094    243.77808    20724    225994.58    54.791928     55.68728    11.729166    96.959338    433.75741    23.508384     22.16299    1.1588962     434.9163   -4095.1259 
   28200   -101364.41   -91247.039    245.68724    20724    225896.65   -23.643344   -173.58119    184.97342   -82.322257    433.62599    23.506851    22.161545    1.2246073    434.85059   -4058.9196 
   28300   -101300.49   -91232.194    244.49541    20724    225749.08     81.96301    128.11034    107.04981    10.728875    433.30926    23.507759      22.1624    1.3829723    434.69223   -4083.3565 
   28400   -101209.49   -91194.882    243.19176    20724    225940.23    -48.16691    85.682924   -263.70376    33.520109    433.25009    23.519315    22.173295    1.4125574    434.66264   -4107.5535 
   28500   -101251.98    -91210.37    243.84753    20724    225862.79    9.6802495   -142.88301    207.93783   -36.014076    433.52719    23.507768    22.162409    1.2740071    434.80119    -4099.236 
   28600   -101202.39   -91192.479    243.07758    20724     225881.3    45.446928   -21.484344   -47.028631    204.85376    433.44401    23.510987    22.165443    1.3155947    434.75961   -4120.3916 
   28700   -101176.39   -91223.703    241.68808    20724    225800.07    46.438036   -41.890202   -57.961508    239.16582    433.64051    23.501432    22.156436    1.2173433    434.85786   -4091.3389 
   28800   -101287.75   -91210.342    244.71671    20724    225882.98    31.713344    9.0855539    196.66625   -110.61177    433.37264     23.51301    22.167351    1.3512801    434.72392   -4106.3889 
   28900   -101229.74   -91183.585    243.95781    20724     225831.4    64.205567   -8.8462241    442.98191   -241.51899    433.36414    23.510555    22.165037    1.3555279    434.71967   -4136.0343 
   29000   -101295.53   -91126.668    246.93745    20724    225852.96   -70.233286   -169.82825    187.06739   -227.93899    433.39534    23.510831    22.165297     1.339931    434.73527   -4185.7853 
   29100   -101213.34   -91172.915    243.81856    20724    225843.15    51.192296    48.416967    4.8765481    100.28337    433.46897    23.508324    22.162933    1.3031167    434.77208   -4147.0856 
   29200   -101245.03   -91193.372    244.09134    20724    225714.65    101.00165    33.860963   -40.255564    309.39955    433.64155    23.496958    22.152218    1.2168266    434.85837   -4135.2506 
   29300   -101174.13   -91145.924    243.52202    20724    225688.51    2.8123751   -25.564289    15.273181    18.728234    433.50651    23.499257    22.154385    1.2843458    434.79085   -4178.0088 
   29400    -101200.4   -91146.818    244.13806    20724     225894.9    45.224594    235.07463    84.588377   -183.98923     433.5514    23.508782    22.163365    1.2619019     434.8133   -4175.6355 
   29500   -101191.99   -91154.889    243.73785    20724    225730.49   -18.415016   -5.9900162   -204.75228    155.49724     433.3915     23.50456    22.159385    1.3418486    434.73335   -4167.6718 
   29600   -101197.38   -91158.312     243.7857    20724    225777.64   -11.649783    22.890288    177.89418   -235.73382    433.57666    23.501995    22.156967    1.2492691    434.82593   -4165.2888 
   29700   -101245.26   -91183.916    244.32662    20724     225803.3     86.67236   -5.0481584    136.75548    128.30976    433.18789    23.513875    22.168167     1.443656    434.63154   -4146.8449 
   29800   -101253.78   -91155.811    245.21606    20724    225795.09   -102.18793   -64.197027   -108.36969   -133.99706    433.38212    23.508178    22.162796    1.3465416    434.72866   -4167.1407 
   29900   -101091.17   -91121.261    242.10634    20724    225844.31   -31.211961   -89.627398   -79.080211    75.071724    433.45988    23.508631    22.163222    1.3076594    434.76754   -4203.3932 
   30000   -101120.98   -91126.662    242.69894    20724    225842.15    51.650499    186.34494   -91.314024    59.920584    433.28625    23.513229    22.167557    1.3944763    434.68072   -4204.7112 
   30100    -101136.1   -91097.577    243.77254    20724    225773.02   -3.9375944   -85.443963   -76.120027    149.75121    433.15557    23.513175    22.167507    1.4598135    434.61539   -4233.9711 
   30200   -101105.46   -91062.319    243.88461    20724     225838.2   -2.6847374    7.2490253   -32.351274    17.048037    433.30073     23.51263    22.166992    1.3872329    434.68797   -4268.1414 
   30300   -101100.79   -91098.597     242.8901    20724    225555.35  -0.74555365    60.095495   -237.42523    175.09307    433.28375    23.498361    22.153541    1.3957231    434.67948   -4241.4235 
   30400   -101089.02   -91045.267    243.89942    20724    225844.04   -14.788993   -45.976921    36.325145   -34.715202    433.45497     23.50875    22.163335    1.3101173    434.76508   -4286.7883 
   30500   -101110.94   -91047.702    244.37268    20724    225779.38   -72.083992   -82.538087    43.898802   -177.61269    433.25613    23.510778    22.165247    1.4095365    434.66566   -4285.7711 
   30600   -101119.03   -91051.828    244.46891    20724    225728.69   -57.441789    40.945324   -181.60162   -31.669071    433.06288    23.513383    22.167702    1.5061584    434.56904   -4284.4146 
   30700   -101080.62   -91058.109    243.38369    20724    225628.61    16.097609    92.715225   -78.203481    33.781084    432.94207     23.51145     22.16588    1.5665656    434.50863   -4288.4902 
   30800   -101046.05   -91013.448    243.62874    20724    225883.62    45.721558    67.034862    51.232525    18.897286    433.20026    23.517721    22.171792    1.4374688    434.63773   -4325.1157 
   30900   -101143.35   -91047.608    245.16186    20724    225688.78   -16.861344    78.746076   -207.25324    77.923126    433.18442    23.508006    22.162633    1.4453923    434.62981   -4297.0845 
   31000   -101152.44   -91048.126    245.37008    20724    225964.47   -2.8795626     85.82727   -71.073123   -23.392834    433.29341    23.519401    22.173376    1.3908962     434.6843   -4289.6753 
   31100   -101156.02   -91008.499     246.4194    20724    225880.66   -83.511275   -197.41396   -214.09134    160.97148     433.3144    23.514469    22.168726     1.380398     434.6948   -4329.0207 
   31200   -101030.28    -90976.72    244.13768    20724    225924.62    71.635059   -39.662368   -50.159416    304.72696    433.27634     23.51779    22.171858    1.3994302    434.67577   -4367.1659 
   31300      -101087   -90950.457    246.15269    20724    226067.64    81.362429    141.04936     -89.8813    192.91923    433.40947    23.521619    22.175467     1.332863    434.74234   -4390.2368 
   31400   -101132.31   -90982.496    246.47496    20724    225920.83   -59.757351   -119.27684    69.317458   -129.31267    433.06158    23.523423    22.177168    1.5068085    434.56839   -4356.9277 
   31500   -101099.43   -90969.804    245.98481    20724    225816.73    21.229374   -42.319813    233.44794      -127.44    433.33348    23.510624    22.165101    1.3708585    434.70434   -4377.8709 
   31600   -101093.92   -90956.707    246.16896    20724    226096.52   -27.550061   -118.37869    38.981664   -3.2531548    433.44643    23.522119    22.175939     1.314383    434.76082   -4380.5232 
   31700   -101025.05   -90969.955     244.1748    20724     225850.1    72.821576   -69.689166     239.9552     48.19869     433.2897    23.513548    22.167859     1.392748    434.68245   -4382.1621 
   31800   -101164.25   -90950.888    248.01819    20724    225728.39   -50.223034   -10.542283   -23.681599   -116.44522    433.22118    23.509071    22.163637    1.4270077    434.64819   -4400.4993 
   31900   -101089.06   -90966.938     245.8025    20724    225637.03   -5.3952692   -135.07746   -24.233252    143.12491    433.12271    23.506985    22.161671    1.4762475    434.59895   -4389.7484 
   32000   -101045.09   -90923.081    245.79977    20724    225703.88    16.169453    76.305443   -217.08664    189.28956    433.26256    23.506672    22.161376    1.4063196    434.66888   -4432.3564 
   32100   -101043.95    -90914.87    245.97157    20724    225627.72    5.6695581    114.41599   -97.805249    0.3979333    433.05598    23.508311    22.162921    1.5096117    434.56559   -4442.7852 
   32200   -100972.56   -90852.882    245.74329    20724     225745.5   -41.040527    6.7804325   -274.93161     145.0296    433.15744    23.511692    22.166108    1.4588818    434.61632   -4500.3007 
   32300   -100956.06   -90886.872    244.51721    20724    225641.37    44.636269    6.8844306    222.78893   -95.764553    433.21846    23.504613    22.159434    1.4283705    434.64683   -4474.7393 
   32400    -101030.5   -90874.908     246.6154    20724    225596.58   -20.338828   -180.66489    112.78875    6.8596577    433.13174    23.504633    22.159453    1.4717302    434.60347   -4485.6133 
   32500   -101013.54   -90887.999    245.88567    20724     225604.3   -10.511741    51.680191     96.21845   -179.43386    433.06671      23.5068    22.161496    1.5042472    434.57095      -4475.9 
   32600   -100998.97   -90881.593     245.6872    20724    225405.82     46.36423    97.256055   -129.63942    171.47605     432.8872    23.501328    22.156338    1.5940015     434.4812   -4490.4521 
   32700   -100946.62   -90880.329    244.44674    20724    225577.23    56.317823   -169.02614   -180.60614    518.58575    432.99359    23.507374    22.162037     1.540804     434.5344   -4486.6316 
   32800   -100871.57   -90852.917    243.29002    20724    225602.28   -16.413751   -107.84741    268.55444   -209.94828    432.96446     23.50947    22.164013     1.555369    434.51983   -4513.5488 
   32900   -101081.32   -90873.757    247.87748    20724    225638.66   -31.406225    3.4899663   -88.622856   -9.0857848    432.72881    23.517766    22.171835    1.6731967      434.402   -4492.2296 
   33000    -101067.8   -90878.164    247.44197    20724    225668.66    -50.85236   -115.02101    299.03483   -336.57089    432.97897    23.512534    22.166903    1.5481174    434.52708   -4489.4652 
   33100   -100990.93   -90819.883    246.99063    20724    225551.56   -24.907477   -146.31618    232.41806    -160.8243    433.12402    23.502497    22.157439    1.4755919    434.59961   -4552.8621 
   33200   -101019.67   -90807.762    247.98297    20724    225580.93    113.95705    205.71065   -61.492672    197.65316    432.91906     23.50959    22.164127    1.5780719    434.49713   -4571.4332 
   33300   -100904.69   -90812.689    245.07108    20724    225917.72    3.7270684    117.50459    -1.434136   -104.88925    433.17444    23.520197    22.174127    1.4503814    434.62482    -4552.872 
   33400   -100909.08   -90822.378    244.94249    20724    225579.84    71.858258    115.71943   -53.699282    153.55462    432.93044    23.509224    22.163782    1.5723797    434.50282   -4556.6837 
   33500   -100920.47   -90808.996    245.54387    20724    225829.18    50.326444   -1.5203882    337.06853   -184.56881     433.1597    23.515988    22.170158    1.4577502    434.61745   -4562.9207 
   33600   -100940.31   -90813.375    245.91931    20724     225855.3    -16.61607    9.7680155   -79.265076     19.64885    433.16497    23.517204    22.171305    1.4551152    434.62008   -4555.2908 
   33700   -100966.47   -90793.838    247.02913    20724    225858.06    67.109572   -101.49693   -68.097241    370.92289    433.07901    23.519682    22.173641    1.4980949    434.57711   -4581.5191 
   33800   -100918.43   -90777.507     246.2591    20724    225566.55   -1.9717917    89.335204   -122.61802    27.367441    432.91572    23.508931    22.163506    1.5797399    434.49546   -4602.2731 
   33900   -101021.13   -90812.612    247.90047    20724    225713.07    9.3214545   -143.01655    109.81408    61.166834    433.05388    23.512814    22.167166    1.5106598    434.56454   -4565.1364 
   34000   -100969.19   -90775.053    247.55142    20724    225568.49    13.971889    75.628541    -129.6086    95.895723    432.69159     23.51512     22.16934    1.6918046     434.3834   -4608.5116 
   34100   -100890.23   -90748.954    246.26758    20724    225712.71    30.087529    70.762216    97.573649   -78.073276    432.97997    23.514802     22.16904    1.5476155    434.52758   -4631.2781 
   34200   -101013.02   -90795.565    248.11755    20724    225597.69   -6.1062365    11.678277    15.802617   -45.799604    432.66018    23.517496     22.17158    1.7075093    434.36769   -4589.5251 
   34300   -100917.31   -90803.263    245.60656    20724    225472.13    67.408983   -87.988258   -14.192573    304.40778    432.79352    23.507328    22.161994    1.6408406    434.43436    -4589.205 
   34400      -100899   -90778.004    245.77523    20724     225595.9   -25.022673   -71.758907   -151.34424    148.03513    432.80993    23.513334    22.167656     1.632635    434.44256    -4606.812 
   34500   -100954.22   -90808.138    246.38433    20724    225595.36    15.419621     59.18725    191.79715   -204.72553    432.69084    23.516541     22.17068    1.6921802    434.38302    -4579.025 
   34600   -100998.86   -90788.687    247.94072    20724     225780.2    2.4561102    67.283911   -8.7353892   -51.180191    432.84801    23.521902    22.175734    1.6135948    434.46161   -4594.8677 
   34700   -100939.99   -90775.793    246.82422    20724    225588.52      4.62422   -73.120561   -117.61629    204.60951    432.63713    23.517645     22.17172    1.7190354    434.35616   -4614.1766 
   34800      -101020   -90735.909    249.73582    20724    225702.34   -31.494104    147.67917    -255.0341    12.872615    432.88692    23.516788    22.170913    1.5941385    434.48106   -4650.8808 
   34900    -100931.8    -90733.46    247.65344    20724    225641.74   -23.737739     174.4611   -125.21062    -120.4637    432.94053    23.512175    22.166564    1.5673348    434.50787   -4656.4013 
   35000   -100940.88   -90752.651    247.40784    20724     225561.2    -57.67935   -190.84294   -107.68264    125.48753    432.94689    23.507806    22.162445    1.5641526    434.51105   -4639.3849 
   35100   -100928.38   -90720.286    247.89028    20724    225769.51   -10.151091   -46.459217    203.36658   -187.36064    432.89519    23.520063       22.174    1.5900071    434.48519   -4669.1362 
   35200   -100824.86   -90676.608    246.43705    20724    225602.56    64.563244    233.13181    8.0921376   -47.534222    432.61285    23.519036    22.173032     1.731175    434.34403   -4721.1169 
   35300   -100850.64    -90655.94    247.56492    20724    225584.68     99.87149    210.49647   -59.657268    148.77527    432.57814    23.519048    22.173043    1.7485275    434.32667    -4746.817 
   35400   -100829.16   -90664.152    246.84387    20724    225406.39   -11.469401    105.01575   -126.78034   -12.643613    432.69974    23.506448    22.161164    1.6877279    434.38747   -4739.6532 
   35500   -100901.49   -90696.645    247.81139    20724     225453.9   -40.586197   -17.877264   -38.876769   -65.004557    433.00879    23.500534    22.155589     1.533205    434.54199   -4704.4776 
   35600   -100756.14   -90655.958    245.26981    20724    225633.43     36.51522    195.52978   -311.37727    225.39315     433.0236    23.509487     22.16403    1.5258009     434.5494   -4744.0108 
   35700   -100991.72   -90686.837    250.24057    20724    225633.42   -6.4936576   -93.705005   -109.09248    183.31651    433.21089    23.504404    22.159237     1.432156    434.64304   -4713.6323 
   35800   -100790.97   -90644.745     246.3878    20724     225538.8   -16.417953   -166.00754    138.23515   -21.481471    433.02193    23.504602    22.159424    1.5266343    434.54857    -4758.127 
   35900   -100835.01    -90650.78    247.31073    20724    225344.34   -109.44593   -274.39125   -84.945654    30.999127    432.92794    23.497017    22.152274     1.573629    434.50157   -4754.9588 
[...]
  491300   -93295.567   -80466.265    311.54289    20724    221866.86   -9.1933841     36.90545   -95.403742     30.91814    422.46658    23.601916    22.251169    6.8043088    429.27089   -22487.539 
  491400    -93232.43    -80487.76     309.4877    20724    221470.74    100.53753    37.372957    414.12334   -149.88371    421.60283     23.60498    22.254057    7.2361869    428.83901   -22486.597 
  491500   -93264.024   -80497.687    310.01386    20724    221842.28    5.5912849     144.0387   -325.92716    198.66232    422.29609    23.605372    22.254427    6.8895542    429.18565   -22463.491 
  491600   -93159.886   -80487.533    307.73157    20724    221602.04    60.520683    -81.01091     76.02732    186.54564    422.32478    23.591785    22.241618    6.8752089    429.19999   -22485.921 
  491700   -93391.887   -80508.639     312.8529    20724    221486.31   -16.151904    136.84842   -56.351599   -128.95253    422.14684    23.590595    22.240496    6.9641801    429.11102   -22469.655 
  491800   -93387.824   -80500.211    312.95889    20724    221153.84   -1.9982215    168.20349    81.704765   -255.90292    422.15921    23.572537    22.223471     6.957993    429.11721   -22492.591 
  491900   -93244.555   -80505.757    309.34512    20724    221330.51   -0.7976041    48.900782   -236.59982    185.30622    422.48587    23.572832     22.22375    6.7946648    429.28054   -22482.447 
  492000   -93318.304   -80488.024    311.56664    20724    221196.25   -114.68639   -30.550794   -264.07829   -49.430083    422.29712    23.570947    22.221972    6.8890403    429.18616    -22499.55 
  492100   -93372.464   -80501.724    312.54916    20724    221455.35   -12.296378     142.9779   -115.45875   -64.408292    422.31274    23.584312    22.234573    6.8812317    429.19397   -22482.967 
  492200   -93201.466   -80510.921    308.17334    20724    221324.92  -0.94552733    59.035646   -19.353229   -42.518999    422.38692    23.575296    22.226072    6.8441412    429.23106    -22478.12 
  492300   -93206.281   -80475.471    309.15114    20724    221023.63    115.12568    100.71829   -105.68562    350.34437    422.26499    23.562644    22.214145    6.9051043     429.1701   -22533.242 
  492400   -93199.499   -80437.283    309.91378    20724    221015.33   -75.395146    181.95755   -427.88917    19.746181    421.84393    23.573958    22.224811    7.1156361    428.95956   -22564.329 
  492500   -93296.826   -80504.932     310.6345    20724    220939.18    101.74686    173.51968   -2.2907556    134.01166     421.7482    23.572572    22.223504    7.1634987     428.9117    -22511.69 
  492600   -93276.081   -80483.162    310.65937    20724    220926.15   -59.713592    -212.0187   -220.14262    253.02054    421.52849    23.578019     22.22864    7.2733533    428.80185   -22527.999 
  492700   -93193.193   -80482.053    308.67348    20724    220506.57    71.293325   -8.8745488    292.66231   -69.907786    421.57864    23.554218      22.2062     7.248278    428.82692   -22552.957 
  492800   -93150.538   -80461.898     308.1271    20724    220562.29    67.808516    121.43853   -113.77922    195.76624     421.7751    23.551706    22.203833     7.150048    428.92515   -22570.194 
  492900   -93310.616   -80469.774    311.82311    20724    220676.34   -101.93758    16.771811   -591.72309    269.13854    421.93555    23.553315     22.20535    7.0698252    429.00537   -22554.128 
  493000   -93317.388   -80480.378    311.73007    20724     220965.3   -22.216583   -250.26639    -37.65189    221.26854    422.04709    23.565616    22.216947    7.0140549    429.06115   -22538.248 
  493100     -93263.4   -80427.814     311.6955    20724    220567.88    57.929733    199.15169   -85.441277    60.078787     421.4645    23.560682    22.212295    7.3053511    428.76985   -22611.698 
  493200   -93239.066   -80449.347    310.58165    20724    220442.01   -2.4443211   -186.28181    -215.7058    394.65465    421.30201      23.5585    22.210238    7.3865961     428.6886    -22595.34 
  493300   -93207.248   -80430.967    310.25533    20724    220677.71    36.093841    137.58867    71.378913   -100.68607    421.39004    23.568629    22.219787    7.3425812    428.73262   -22606.646 
  493400   -93172.802   -80409.357    309.94362    20724    220276.59    57.365721    52.204464    61.439934    58.452764    421.22365    23.551849    22.203967    7.4257736    428.64943   -22646.262 
  493500   -93088.432   -80382.649    308.54338    20724    220603.54   -13.817521    73.518042   -233.02581    118.05521    421.39394    23.564559     22.21595    7.3406321    428.73457    -22656.99 
  493600   -93216.539   -80453.773    309.92713    20724     220915.1    94.249773    204.61865     120.0573   -41.926626    421.74375    23.571411     22.22241     7.165727    428.90947   -22581.105 
  493700    -93184.62   -80473.384     308.6758    20724    220613.11    129.66489     38.61499    285.62063     64.75904    421.65636    23.557736    22.209517    7.2094183    428.86578   -22576.743 
  493800   -93286.055   -80451.324    311.67472    20724    220868.51   -80.224039    -54.03293    -180.8957   -5.7434837    421.77395    23.568082    22.219271    7.1506267    428.92457   -22580.883 
  493900   -93324.088   -80419.882    313.36183    20724    220642.09   -101.88348   -173.57792   -81.415646   -50.656873    421.27864    23.569842    22.220931    7.3982811    428.67692   -22622.942 
  494000   -93189.805   -80479.684    308.64874    20724    220744.24    207.13388   -38.747551    322.11742    338.03178    421.33455    23.573733    22.224599     7.370323    428.70488   -22575.764 
  494100   -93237.326   -80460.519    310.26811    20724    221114.32   -32.375623    175.50942   -4.6784443   -267.95785    422.06553    23.573046    22.223951    7.0048343    429.07037   -22571.804 
  494200   -93248.976   -80473.861    310.22703    20724     220595.8   -24.758497   -245.18662    175.78672   -4.8755924    421.77963    23.553369      22.2054    7.1477832    428.92742   -22578.014 
  494300    -93234.73   -80538.493    308.31157    20724    220863.81    81.861435    59.633959    166.20372    19.746621    422.01472    23.561107    22.212696     7.030242    429.04496   -22512.091 
  494400   -93356.718   -80529.909    311.48236    20724     220671.4   -123.95395   -219.13519    35.550339   -188.27699    422.19338    23.545859     22.19832    6.9409083    429.13429   -22521.404 
  494500   -93402.197    -80556.48    311.94149    20724    220949.87    48.314301    58.160888   -29.296809    116.07883    422.30256    23.557664     22.20945    6.8863203    429.18888   -22495.033 
  494600    -93387.97   -80475.462    313.56342    20724    221011.82   -101.72303   -312.65582   -256.72444    264.21117    422.54336    23.554252    22.206233    6.7659187    429.30928   -22570.092 
  494700   -93340.256   -80489.279    312.06922    20724    220944.17   -41.263068   -148.70754   -103.04075    127.95908    422.39708    23.554724    22.206678    6.8390582    429.23614   -22562.757 
  494800   -93192.003   -80477.086     308.7652    20724    221015.15     24.13497    43.174489   -87.419377     116.6498    422.27014    23.562049    22.213583    6.9025307    429.17267   -22575.921 
  494900    -93350.42    -80482.09    312.49063    20724    221262.72    -110.0344   -120.84802    5.7354108   -214.99059    422.28133    23.574929    22.225727    6.8969333    429.17827   -22556.895 
  495000   -93340.722   -80502.512    311.75919    20724    220941.73   -133.49614   -392.99106     147.1218   -154.61915    422.22728    23.559331    22.211021    6.9239612    429.15124   -22549.947 
  495100   -93317.056   -80476.773    311.80954    20724    221128.11     146.9576    98.698531    49.215627    292.95865    422.29044    23.567503    22.218725    6.8923786    429.18282    -22586.24 
  495200   -93237.937   -80443.712    310.69108    20724    221100.72    -140.3812   -190.64493    5.9274624   -236.42613    422.35798    23.564159    22.215572    6.8586094    429.21659   -22605.839 
  495300   -93339.458    -80443.78    313.15474    20724    221229.88    1.3235216     15.93254   -203.21274    191.25077    422.42319    23.569221    22.220345    6.8260044     429.2492    -22609.83 
  495400   -93309.188    -80463.15    311.94929    20724    221307.48   -27.239946    -64.74223    359.71648   -376.69409    422.30322    23.576702    22.227398    6.8859886    429.18921   -22588.795 
  495500   -93378.464   -80519.898    312.25351    20724    221042.02    7.6896504   -54.179559    276.61943   -199.37092    422.40358    23.559759    22.211425    6.8358123    429.23939   -22544.621 
  495600   -93222.928   -80477.909    309.49617    20724    221096.03    121.75069    157.52714    70.234647     137.4903    422.27116    23.566331    22.217621    6.9020197    429.17318   -22591.707 
  495700   -93324.326   -80466.951     312.2246    20724    220886.51   -175.56462   -218.76163   -422.03347    114.10124    421.88617    23.565907    22.217221    7.0945161    428.98068   -22601.371 
  495800   -93261.105   -80472.563    310.55308    20724    221166.91    14.415395    44.924093    -85.53051    83.852602    422.49845    23.563767    22.215204    6.7883754    429.28682   -22594.373 
  495900   -93390.166   -80442.742    314.41132    20724    221423.93   -19.593268   -167.42921   -39.334991     147.9844    422.86472    23.567242     22.21848    6.6052416    429.46996   -22616.816 
  496000    -93195.77   -80418.912    310.26936    20724    221241.64    24.654353   -48.912636    221.90825    -99.03256    422.39163    23.570728    22.221766    6.8417852    429.23341   -22648.588 
  496100   -93393.668    -80466.27    313.92503    20724    221120.99   -179.36351   -219.13569     26.72134   -345.67618    422.24211    23.568472    22.219639    6.9165461    429.15865   -22601.393 
  496200   -93191.477   -80458.585    309.20169    20724    221141.39     151.5278     204.3149    161.78971    88.478784    421.91296    23.578751     22.22933    7.0811218    428.99408   -22624.174 
  496300   -93206.079   -80459.231    309.54061    20724    221408.07    71.051059    63.066093   -148.22146    298.30854    422.59338    23.573963    22.224815    6.7409094    429.33429   -22611.662 
  496400   -93181.329   -80418.517    309.92826    20724       221333    -56.55786   -272.09123     414.0865   -311.66885     422.4323    23.574459    22.225284    6.8214524    429.25375    -22651.82 
  496500   -93266.637   -80445.615    311.34181    20724    221274.89    53.222588    128.05462    90.685624   -59.072478    422.51176    23.569148    22.220276    6.7817192    429.29348   -22633.301 
  496600   -93156.795   -80421.021    309.27167    20724    221422.04    87.523272    234.08267   -125.48878    153.97593    422.59023    23.574794    22.225599    6.7424841    429.33272   -22655.777 
  496700   -93253.325   -80426.256    311.48867    20724    221451.67    20.897493   -50.340269   -125.83025      238.863    422.63029    23.575254    22.226033    6.7224557    429.35274   -22648.883 
  496800   -93148.685   -80461.899    308.08209    20724    221627.14   -12.667164    -39.92731    108.76184   -106.83602    422.83853    23.578784    22.229361    6.6183354    429.45686   -22604.636 
  496900   -93240.014   -80457.127    310.41576    20724    221510.03    108.93824    227.98714    163.93344   -65.105855    423.23438    23.561527    22.213092    6.4204119    429.65479   -22623.644 
  497000   -93209.183   -80448.909    309.86663    20724    221374.28   -86.559782    199.81164   -400.88475   -58.606239    423.05793    23.559218    22.210915    6.5086327    429.56657   -22629.659 
  497100    -93267.13   -80448.335    311.28773    20724     221516.6      23.7023   -38.629339    244.02985   -134.29361    423.18434     23.56327    22.214734    6.4454313    429.62977   -22633.254 
  497200   -93189.496   -80372.506    311.24391    20724     221545.9   -62.982272   -149.19616    85.741112   -125.49177    422.86594    23.573698    22.224566    6.6046313    429.47057    -22704.46 
  497300   -93248.668    -80382.63    312.43498    20724    221460.14   -177.93907   -177.82403    17.751881   -373.74507    422.76435    23.571966    22.222933    6.6554233    429.41978   -22695.461 
  497400   -93159.192   -80396.463    309.92625    20724    220954.61    56.330855    47.038892    -39.58015    161.53382     422.0755    23.564253    22.215662    6.9998522    429.07535   -22713.512 
  497500   -93149.348    -80425.85    308.97356    20724    221387.36    43.456998   -67.907906    173.52966     24.74924    422.34696    23.579736    22.230259    6.8641214    429.21108   -22668.456 
  497600   -93231.027   -80383.512    311.98515    20724    221620.58    48.481654   -62.345958   -8.0403477    215.83127    422.62304    23.584446    22.234698    6.7260804    429.34912   -22704.462 
  497700   -93152.196    -80416.71    309.26468    20724    221060.11   -13.614639     193.3786   -283.95951    49.736994    421.92515    23.574077    22.224923    7.0750231    429.00018   -22693.411 
  497800    -93212.76   -80408.527     310.9341    20724    221244.99    66.514038    48.764285    53.814462    96.963366    422.25399    23.574748    22.225556    6.9106046     429.1646   -22698.199 
  497900   -93217.966   -80418.505    310.81824    20724    220890.33   -186.02183    15.656281   -216.55693   -357.16485    421.81142    23.568199    22.219382    7.1318924    428.94331   -22694.051 
  498000   -93091.205   -80445.604    307.08196    20724    220651.71   -21.630298    364.36835   -206.76844    -222.4908    422.01397    23.549812    22.202047    7.0306144    429.04459   -22684.575 
  498100   -93267.688   -80438.912     311.5301    20724    220811.12    33.100561      56.4147    21.956048    20.930935    422.11994     23.55536    22.207278    6.9776306    429.09757   -22688.399 
  498200    -93230.94   -80422.255    311.04223    20724    221147.97   -62.488893   -239.37717    159.08002   -107.16953    422.22345    23.570431    22.221486    6.9258743    429.14933   -22688.382 
  498300   -93291.469   -80479.777    311.11526    20724    220840.58   -48.045808   -263.62264    80.504331    38.980886    421.82509    23.565163    22.216519     7.125054    428.95015   -22645.276 
  498400   -93194.889   -80474.018    308.90979    20724    220944.71   -78.304569    269.42382   -49.197774   -455.13975    421.91729    23.568142    22.219328     7.078956    428.99624   -22647.601 
  498500   -93335.713   -80492.701     311.8758    20724    220679.45    31.098144   -163.86317   -11.367157    268.52476    422.13136    23.548018    22.200355    6.9719185    429.10328   -22647.538 
  498600   -93205.583    -80479.45    309.03756    20724    220920.32   -97.068433   -135.56433    18.127445   -173.76841    421.83596    23.569113    22.220244    7.1196182    428.95558   -22647.997 
  498700   -93239.442   -80468.668    310.12161    20724    220948.92   -20.859081   -146.10274   -111.53416    195.05966    421.37765    23.583454    22.233763    7.3487774    428.72642   -22662.997 
  498800    -93170.97   -80420.711    309.62344    20724    220843.07     158.2572     206.7922   -77.384646    345.36404    421.61982    23.571032    22.222052    7.2276913    428.84751    -22723.81 
  498900   -93164.282   -80434.795    309.11901    20724    221107.19   -1.0012469   -59.632249    14.787797    41.840711    421.95091    23.575868    22.226611    7.0621456    429.01305   -22692.678 
  499000   -93233.523   -80403.465    311.56124    20724    220883.01   -54.255036   -286.51645    127.63458   -3.8832408    422.09748    23.559821    22.211483    6.9888601    429.08634    -22733.89 
  499100    -93148.12   -80412.706    309.26296    20724    220563.57    31.314764   -30.075694    240.38939    -116.3694    421.49145    23.559698    22.211367    7.2918728    428.78333   -22743.122 
  499200   -93113.163   -80379.953    309.20942    20724    220878.67    40.974642    160.19753   -30.783441   -6.4901634    421.75426    23.569174    22.220301    7.1604707    428.91473   -22765.547 
  499300   -93255.245   -80423.253    311.60822    20724    220953.21    -49.82084    212.00631   -47.858559   -313.61027    422.06111     23.56458    22.215969    7.0070443    429.06816   -22718.155 
  499400   -93073.867   -80401.603    307.72942    20724     221147.5    75.865565    40.811196     116.6973    70.088196    422.42513    23.564778    22.216156    6.8250328    429.25017   -22738.945 
  499500   -93207.188   -80426.663     310.3584    20724    221295.77    -161.8333   -302.01801   -139.54707    -43.93482    422.42769    23.572605    22.223536    6.8237575    429.25144    -22700.08 
  499600   -93223.278   -80433.066    310.59362    20724    220923.22     14.59868    335.29787   -132.88011   -158.62172    422.12615    23.561166    22.212751    6.9745266    429.10067   -22717.179 
  499700   -93255.611   -80463.484    310.64014    20724    220937.29   -173.04294   -50.849978   -209.18762   -259.09123    422.28299     23.55754    22.209332    6.8961057    429.17909   -22678.698 
  499800   -93379.676   -80438.136    314.26845    20724    221340.82    80.774403   -24.936387    145.90692    121.35268    422.55435    23.571471    22.222466    6.7604232    429.31478   -22704.818 
  499900   -93262.057   -80462.442    310.82198    20724    220943.55   -97.776873   -189.53914    137.48747   -241.27894    421.89768    23.568628    22.219786      7.08876    428.98644   -22688.637 
  500000   -93143.918   -80420.233    308.97811    20724    220656.12    22.270788   -27.007106    63.052559    30.766913    421.74014    23.557692    22.209476    7.1675319    428.90767   -22745.909 
Loop time of 71143.9 on 32 procs for 500000 steps with 20724 atoms

Performance: 1.214 ns/day, 19.762 hours/ns, 7.028 timesteps/s
97.4% CPU use with 32 MPI tasks x no OpenMP threads

MPI task timing breakdown:
Section |  min time  |  avg time  |  max time  |%varavg| %total
---------------------------------------------------------------
Pair    | 13487      | 14576      | 16477      | 802.6 | 20.49
Bond    | 0.77388    | 0.87675    | 1.2001     |   9.0 |  0.00
Kspace  | 13120      | 15024      | 16114      | 791.6 | 21.12
Neigh   | 10668      | 12758      | 14819      |1530.9 | 17.93
Comm    | 547.22     | 1812.7     | 3709.5     |2232.2 |  2.55
Output  | 7.561      | 31.366     | 43.115     | 210.5 |  0.04
Modify  | 25394      | 26858      | 29823      | 894.6 | 37.75
Other   |            | 82.04      |            |       |  0.12

Nlocal:    647.625 ave 696 max 605 min
Histogram: 4 2 4 8 0 3 3 2 0 6
Nghost:    7363.56 ave 7878 max 6911 min
Histogram: 6 2 2 5 2 3 2 4 4 2
Neighs:    238658 ave 275115 max 213367 min
Histogram: 4 7 7 0 1 3 3 1 2 4
FullNghs:  477314 ave 545074 max 426740 min
Histogram: 4 6 8 0 0 4 3 1 0 6

Total # of neighbors = 15274049
Ave neighs/atom = 737.022
Ave special neighs/atom = 2
Neighbor list builds = 500000
Dangerous builds not checked
write_data production.R1
PPPM initialization ...
  extracting TIP4P info from pair style
WARNING: Using 12-bit tables for long-range coulomb (../kspace.cpp:316)
  G vector (1/distance) = 0.345963
  grid = 400 48 48
  stencil order = 5
  estimated absolute RMS force accuracy = 0.000400645
  estimated relative force accuracy = 1.20653e-06
  using double precision FFTs
  3d grid and FFT values/proc = 67260 38400
write_restart restartproduction.R1
PPPM initialization ...
  extracting TIP4P info from pair style
WARNING: Using 12-bit tables for long-range coulomb (../kspace.cpp:316)
  G vector (1/distance) = 0.345963
  grid = 400 48 48
  stencil order = 5
  estimated absolute RMS force accuracy = 0.000400645
  estimated relative force accuracy = 1.20653e-06
  using double precision FFTs
  3d grid and FFT values/proc = 67260 38400
Total wall time: 19:45:44
