LAMMPS (30 Jul 2016)
# Sets up LAMMPS simulation for transient melting of ice: TIP4P/Ice
# Ensure cold thermostats do not move
# Thinbox: 16x1x1
# Defects
# Order param l=2

#### setting MD parameters ####
units real
boundary p p p
atom_style full

# read ice box in restart file
### read the equilibrated NPT restart file

read_restart restart.state
  orthogonal box = (0.42549 0.02296 0.021646) to (435.65 23.5082 22.1629)
  32 by 1 by 1 MPI processor grid
  20736 atoms
  13824 bonds
  6912 angles
  2 = max # of 1-2 neighbors
  1 = max # of 1-3 neighbors
  1 = max # of 1-4 neighbors
  2 = max # of special neighbors


#### force field definition ####
pair_style      lj/cut/tip4p/long 2 1 1 1 0.1577 10.0
pair_modify	tail yes

kspace_style	pppm/tip4p 1.0e-6

bond_style	harmonic
angle_style	harmonic
dihedral_style	none
improper_style	none

bond_coeff	1 450.0 0.9572
angle_coeff	1 55.0 104.52


# reset pair coeff
pair_coeff	* * 0.0 0.0

#OO
pair_coeff	2 2 0.21085 3.1668
#OH
pair_coeff	* 1 0.0000 0.0000

neighbor        2.0 bin
neigh_modify    every 1 delay 1 check no

timestep	2.0
fix		constraints all shake 0.000001 20 0 b 1 a 1
  0 = # of size 2 clusters
  0 = # of size 3 clusters
  0 = # of size 4 clusters
  6912 = # of frozen angles

group water type 1 2
20736 atoms in group water

#*********** SIMULATION PARAMETER TO ADJUST ****************
#Box dimensions
variable lx equal lx
variable ly equal ly
variable lz equal lz

### Temperature of the hot and cold regions ####
variable thi equal 375
variable tlo equal 215
variable runpressure equal 0.986923


# Configuration equilibrated in density and temperature

# Define dx here

variable lx equal lx
variable ly equal ly
variable lz equal lz

variable xlo equal xlo
variable xhi equal xhi

variable boxcentre equal ${xlo}+(${xhi}-${xlo})/2
variable boxcentre equal 0.42548969450084+(${xhi}-${xlo})/2
variable boxcentre equal 0.42548969450084+(435.649710305489-${xlo})/2
variable boxcentre equal 0.42548969450084+(435.649710305489-0.42548969450084)/2

variable dx equal 2.0

#### ADD IN DEFECTS AT THE CENTRE OF THE HOT THERMOSTAT #####
variable y1 equal ${ly}/2.0
variable y1 equal 23.4852800160198/2.0
variable z1 equal ${lz}/2.0
variable z1 equal 22.1412080350927/2.0

region kill1 sphere ${boxcentre} ${y1} ${z1} 3
region kill1 sphere 218.037599999995 ${y1} ${z1} 3
region kill1 sphere 218.037599999995 11.7426400080099 ${z1} 3
region kill1 sphere 218.037599999995 11.7426400080099 11.0706040175463 3
delete_atoms region kill1 compress no bond yes mol yes
Deleted 12 atoms, new total = 20724
Deleted 8 bonds, new total = 13816
Deleted 4 angles, new total = 6908
############


variable thip equal ${thi}*2.0/3.0
variable thip equal 375*2.0/3.0
variable tlop equal ${tlo}*2.0/3.0
variable tlop equal 215*2.0/3.0
variable hbl equal ${boxcentre}-${dx}
variable hbl equal 218.037599999995-${dx}
variable hbl equal 218.037599999995-2
variable hbh equal ${boxcentre}+${dx}
variable hbh equal 218.037599999995+${dx}
variable hbh equal 218.037599999995+2

#***************************************************
## EQUILIBRATION PERIOD - to reach the steady state ###
#run 0

#reset the timestep to start your production run
reset_timestep 0

# define a group to perform averages
#group s1 type 1
###*** SYSTEM THERMOSTATTING: HOT and COLD regions ***###

fix NVE all nve
fix PRESS all press/berendsen aniso ${runpressure} ${runpressure} 500000 couple yz
fix PRESS all press/berendsen aniso 0.986923 ${runpressure} 500000 couple yz
fix PRESS all press/berendsen aniso 0.986923 0.986923 500000 couple yz


### Apply THERMOSTATS ###

#set up the "hot region" in the middle of the box
region hot block ${hbl} ${hbh} 0 ${ly} 0 ${lz} units box
region hot block 216.037599999995 ${hbh} 0 ${ly} 0 ${lz} units box
region hot block 216.037599999995 220.037599999995 0 ${ly} 0 ${lz} units box
region hot block 216.037599999995 220.037599999995 0 23.4852800160198 0 ${lz} units box
region hot block 216.037599999995 220.037599999995 0 23.4852800160198 0 22.1412080350927 units box


#set up the "cold region" at the left end of the box
#region cold block ${cbl} ${cbh} 0 ${ly} 0 ${lz} units box

#set up the "cold region" at the right end of the box
#region cold2 block ${h2bl} ${xhi} 0 ${ly} 0 ${lz} units box


#Cold regions  unification
#region cold union 2 cold1 cold2 units box

#Create group of cold molecules
####group cool_ice region cold
####group cool_ice include molecule

####compute cold_temp cool_ice temp
####fix cold_rescale water temp/rescale 1 ${tlo} ${tlo} 0.0001 1.0
####fix_modify cold_rescale temp cold_temp

#this calculates the temperature using only the atoms in the "hot region"
#compute hot_temp all temp/region hot

# calculate the temperature using only WATER in the "hot region"
compute hot_temp water temp/region hot

#this calculates the temperature using only WATER in the "cold region"
#compute cold_temp water temp/region cold


#set up a basic velocity rescale for the hot region WATER with thip
fix hot_rescale water temp/rescale 1 ${thip} ${thip} 1.0 1.0
fix hot_rescale water temp/rescale 1 250 ${thip} 1.0 1.0
fix hot_rescale water temp/rescale 1 250 250 1.0 1.0
#change the thermostat to only act on the "hot region"
#this is done by passing it the "hot temp" compute that we defined above
fix_modify hot_rescale temp hot_temp

#set up a basic velocity rescale for the cold region
#fix cold_rescale water temp/rescale 1 ${tlop} ${tlop} 1.0 1.0
#change the thermostat to only act on the "cold region"
#this is done by passing it the "cold temp" compute that we defined above
#fix_modify cold_rescale temp cold_temp

### Ensure MOMENTUM CONSERVATION ###

#ensure that linear momentum is conserved despite the "thermostatting" by velocity rescaling
fix cons_mom all momentum 1 linear 1 1 1


thermo 100
thermo_style custom step pe etotal temp atoms vol press pxx pyy pzz lx ly lz xlo xhi  f_hot_rescale

group ox type 2
6908 atoms in group ox
group hy type 1
13816 atoms in group hy
compute KE all ke/atom
variable TEMP atom c_KE*4186.8/(1.3806488*6.02214129)

compute cc1 all chunk/atom bin/1d x center 2 units box
#fix TPROFILE all ave/chunk 1 500 500 cc1 v_TEMP density/number file temp.dat
fix TPROFILEox ox ave/chunk 1 500 500 cc1 v_TEMP density/number file temp-ox.dat
fix TPROFILEhy hy ave/chunk 1 500 500 cc1 v_TEMP density/number file temp-hy.dat

compute orderparam ox orientorder/atom degrees 1 2 nnn 4 cutoff 3.5
compute cc2 ox chunk/atom bin/1d x center 2 units box
#fix ORDERPARAM all ave/chunk 1 500 500 cc2 c_orderparam[1] file order-param.dat
fix ORDERPARAM all ave/chunk 1 500 500 cc2 c_orderparam[1] file order-param.dat

restart 50000 config.restart

run 500000
PPPM initialization ...
  extracting TIP4P info from pair style
WARNING: Using 12-bit tables for long-range coulomb (../kspace.cpp:316)
  G vector (1/distance) = 0.345599
  grid = 405 48 48
  stencil order = 5
  estimated absolute RMS force accuracy = 0.000406003
  estimated relative force accuracy = 1.22267e-06
  using double precision FFTs
  3d grid and FFT values/proc = 67260 38880
Neighbor list info ...
  2 neighbor list requests
  update every 1 steps, delay 1 steps, check no
  max neighbors/atom: 2000, page size: 100000
  master list distance cutoff = 12.3154
  ghost atom cutoff = 12.3154
  binsize = 6.1577 -> bins = 71 4 4
Memory usage per processor = 12.7911 Mbytes
Step PotEng TotEng Temp Atoms Volume Press Pxx Pyy Pzz Lx Ly Lz Xlo Xhi hot_resc 
       0   -103866.09   -95037.152     214.3993    20724    226313.32    7.1077445    58.939782   -45.285353    7.6688046    435.22422     23.48528    22.141208   0.42548969    435.64971            0 
     100   -103684.93   -94772.354     216.4303    20724    226302.44    4.8498665     -38.2067    94.350225   -41.593925    435.08325     23.48852    22.144263   0.49597572    435.57922   -262.48379 
     200   -103694.07   -94732.047    217.63095    20724    226287.23   -29.617272     20.49375   -103.97748    -5.368086    435.05734     23.48843    22.144178   0.50893207    435.56627   -302.17767 
     300   -103659.26   -94693.198    217.72915    20724    226279.89    -8.087411   -55.406405   -59.337421    90.481593    435.03459    23.488663    22.144398   0.52030347     435.5549    -342.4242 
     400   -103579.12   -94654.527    216.72207    20724    226139.48   -28.675267   -20.201971   -284.43088    218.60706    434.91263    23.484667     22.14063   0.58128276    435.49392    -385.2012 
     500   -103524.32   -94564.599    217.57516    20724    226324.76    67.883227    85.733793    112.04275    5.8731364    434.98382    23.492363    22.147886   0.54569177    435.52951   -475.17431 
     600    -103589.1   -94566.719     219.0967    20724    226348.48    26.212212   -162.73415    94.481413    146.88937    435.14272    23.489304    22.145002   0.46624014    435.60896   -471.08776 
     700   -103531.53    -94535.24     218.4632    20724    226172.98    24.380281    69.178489   -137.85167    141.81402      435.194    23.478812     22.13511    0.4405995     435.6346   -509.20249 
     800   -103535.86   -94506.354    219.26973    20724    226163.77    32.055775   -132.93357     151.7052    77.395697    435.03527    23.482617    22.138698   0.51996519    435.55523   -537.60786 
     900   -103520.35   -94454.162    220.16063    20724    226369.94    4.7001726     91.30691    7.5515045   -84.757897    435.25531    23.487379    22.143187    0.4099454    435.66525   -584.39674 
    1000   -103515.67   -94393.676    221.51578    20724    226322.41    -9.482793    58.064711   -369.59572    283.08263    435.12929    23.488314    22.144068   0.47295617    435.60224   -646.08515 
    1100   -103394.49   -94343.314    219.79601    20724    226379.34   -13.369989   -28.941712   -129.21719    118.04894    435.24845    23.488051    22.143821   0.41337476    435.66183   -694.08446 
    1200   -103387.49   -94342.448    219.64715    20724    226295.46     36.61854   -156.74726    140.30163    126.30124     434.9502     23.49175    22.147308    0.5624997     435.5127   -701.05994 
    1300   -103436.67   -94339.534    220.91219    20724    226499.84   -113.01364   -77.897773    40.657743   -301.80089    435.20853     23.49538     22.15073   0.43333303    435.64187   -693.42559 
    1400    -103450.5   -94315.815    221.82387    20724    226537.47   -13.462263    82.602097   -225.26368    102.27479    435.28438    23.495284    22.150639   0.39540848    435.67979   -720.77005 
    1500   -103457.22   -94318.058    221.93276    20724    226293.49   -34.958474    72.689018   -179.16695    1.6025081    435.07143    23.488374    22.144125   0.50188741    435.57331   -726.66386 
    1600   -103373.75   -94300.987    220.32013    20724    226390.09    82.282404    84.693823   -63.783745    225.93713    435.05758    23.493761    22.149204    0.5088082    435.56639   -745.57505 
    1700   -103412.79   -94256.447    222.34998    20724    226452.19   -133.19606   -43.096159   -39.546052   -316.94597    435.20148    23.493098    22.148579   0.43686103    435.63834   -780.37915 
    1800   -103357.82   -94227.435    221.71944    20724    226450.94    22.109527   -47.100089    337.22902   -223.80035    435.49709    23.485059    22.140999    0.2890571    435.78614   -816.48128 
    1900   -103373.04   -94169.311    223.50062    20724    226571.05   -15.312757   -57.908599    149.66226   -137.69193    435.31738    23.496134    22.151441   0.37890769    435.69629    -872.1062 
    2000   -103362.83   -94144.422     223.8569    20724    226516.81    15.919954   -71.151177    -115.2642    234.17524    435.31545    23.493374    22.148839   0.37987322    435.69533   -898.45231 
    2100   -103383.34   -94159.672    223.98486    20724    226558.88   -11.928924   -261.69097    95.570523    130.33368    435.45255    23.491857    22.147408   0.31132686    435.76387   -883.12023 
    2200   -103331.38   -94122.121    223.63485    20724    226622.29   -31.592736   -21.589517   -29.730165   -43.458525    435.60828    23.490944    22.146548   0.23346116    435.84174   -919.09902 
    2300   -103295.63   -94067.394    224.09559    20724    226530.04    63.243808    49.587329    150.29149   -10.147392    435.35715    23.492935    22.148425   0.35902513    435.71617   -980.71194 
    2400   -103276.43   -94062.904     223.7384    20724    226630.19    67.263146     144.7303    458.16742   -401.10828    435.47196     23.49503      22.1504   0.30162041    435.77358    -983.2302 
    2500   -103351.51   -94064.279    225.52822    20724    226547.68   -70.878511    2.9523178   -9.9808832   -205.60697    435.31905    23.494878    22.150257   0.37807727    435.69712   -979.86687 
    2600   -103210.47   -94052.899    222.37966    20724     226584.1    18.931862    91.407848   -11.884947   -22.727315    435.29522     23.49741    22.152643   0.38999105    435.68521   -995.96608 
    2700   -103260.37   -94008.319    224.67408    20724    226495.68   -9.3603145   -66.736328    6.8159702    31.839415    435.46925    23.488129    22.143894   0.30297325    435.77223    -1041.455 
    2800   -103248.67   -94034.487    223.75451    20724    226551.91    44.822421    65.229474    65.274633     3.963157    435.39266    23.493111    22.148591    0.3412722    435.73393   -1016.9509 
    2900   -103218.55   -93998.291     223.9019    20724    226528.31    9.9801455    116.78559    138.64079   -225.48594    435.39869    23.491724    22.147284   0.33825418    435.73695   -1052.3341 
    3000   -103175.91   -93953.336     223.9583    20724    226410.85    4.0645815    47.939057    22.376655   -58.121967    435.32953    23.487499      22.1433   0.37283694    435.70236   -1100.5186 
    3100   -103228.04   -93948.266    225.34711    20724    226567.49    19.286966    159.43486    71.518663   -173.09262    435.45779    23.492162    22.147696   0.30870409     435.7665   -1103.8005 
    3200   -103214.98    -93919.19    225.73608    20724    226617.99    17.113003   -146.08539    169.05334     28.37106    435.49565    23.493758    22.149201   0.28977557    435.78542   -1131.5076 
    3300   -103135.04   -93902.217    224.20707    20724    226625.36   0.91367605    140.12925   -124.85627   -12.531953     435.3553    23.497927    22.153132   0.35995167    435.71525   -1147.7234 
    3400   -103213.42   -93879.066    226.67252    20724    226579.09   -20.927417   -184.97266   -144.84024    267.03064    435.44911    23.492997    22.148484   0.31304585    435.76215   -1171.7102 
    3500   -103223.03   -93894.615    226.52845    20724    226539.86    6.8731491   -137.87043     109.8456    48.644271    435.52837    23.488826    22.144551   0.27341516    435.80178   -1160.3602 
    3600   -103148.52   -93835.258    226.16034    20724    226675.56    51.458562     118.4594    240.46167   -204.54539    435.33615    23.501046    22.156072   0.36952374    435.70568   -1220.9258 
    3700   -103174.65   -93826.918    226.99738    20724    226584.41   -21.093926   -108.24282    87.253785   -42.292748    435.25043    23.498634    22.153798   0.41238519    435.66281   -1226.5692 
    3800   -103226.68    -93874.38    227.10837    20724     226629.2    50.707142   -47.990401    88.324305    111.78752     435.2523    23.500906     22.15594   0.41144855    435.66375   -1181.6066 
    3900   -103165.02   -93808.814    227.20334    20724    226495.09   -92.708801   -174.77402   -54.147482   -49.204906    435.06419    23.499031    22.154172   0.50550616    435.56969   -1246.2419 
    4000    -103128.5   -93806.509    226.37246    20724    226652.52    29.517261   -68.129695    141.77478    14.906695    435.34648    23.499573    22.154683   0.36436062    435.71084   -1251.3182 
    4100    -103076.3   -93786.091    225.60056    20724    226593.57    9.7923199    -20.95647   -177.95586    228.28929    435.18244    23.500945    22.155976   0.44637925    435.62882    -1272.482 
    4200    -103084.3   -93718.711    227.43119    20724    226745.39    43.519837    42.775729     76.80802    10.975763    435.43294    23.502053    22.157021   0.32113149    435.75407   -1339.6522 
    4300   -103085.61   -93724.055    227.33327    20724     226578.9    52.189034    151.65768    300.85677   -295.94735    435.33141    23.496163    22.151468   0.37189356    435.70331   -1338.7361 
    4400   -103034.51   -93659.654    227.65617    20724    226762.63   -43.511704    41.930071    48.203494   -220.66868     435.4002    23.503831    22.158697   0.33750143     435.7377   -1392.8895 
    4500   -103082.08   -93665.305    228.67409    20724    226719.28    6.8242323    153.62831    1.2557048   -134.41132    435.45421    23.500126    22.155204   0.31049425    435.76471   -1393.6384 
    4600   -103053.07   -93645.565    228.44893    20724    226863.07    4.6946464    174.68342    52.231521     -212.831    435.45886    23.507452    22.162111   0.30816872    435.76703   -1410.3291 
    4700   -102952.37   -93599.574    227.12048    20724    226716.04    33.398937    86.522732   -29.235672    42.909751    435.49706    23.498802    22.153957   0.28907232    435.78613   -1461.8976 
    4800   -102990.95   -93593.408      228.207    20724    226724.36   -39.593018    8.0865367   -168.50952    41.643926    435.52068    23.498596    22.153762   0.27725895    435.79794   -1465.6904 
    4900   -102965.38   -93563.352    228.31601    20724    226679.98    23.227078    66.987829    -66.96632    69.659726    435.56239    23.495171    22.150533   0.25640341     435.8188   -1500.8293 
    5000   -103047.36    -93577.75    229.95722    20724    226781.29   -83.948788   -268.96364    87.112131   -69.994859    435.57668    23.500035    22.155119   0.24926169    435.82594   -1478.9019 
    5100   -102962.38   -93593.006    227.52297    20724    226534.56    90.521204    47.112354    239.41339   -14.962126    435.17599    23.498059    22.153255   0.44960567    435.62559   -1479.5107 
    5200    -102945.3   -93593.814    227.08867    20724     226659.8    12.137732    96.745478   -11.139939   -49.192343    435.48821    23.496126    22.151433   0.29349443    435.78171   -1474.0422 
    5300    -103014.8   -93588.177    228.91324    20724    226745.03   -51.963683    7.0982572   -122.51495   -40.474355    435.40603    23.502761    22.157688   0.33458426    435.74062   -1475.8612 
    5400    -103064.8   -93615.385    229.46675    20724    226733.05   -61.370771     72.89154   -424.19474    167.19089    435.36612    23.503217    22.158119    0.3545395    435.72066   -1448.9703 
    5500   -103010.67   -93564.201     229.3952    20724    226690.07   -36.997427   -74.464156   -7.7029846   -28.825139    435.31024    23.502498    22.157441   0.38247987    435.69272   -1504.5977 
    5600   -102967.17   -93552.727    228.61747    20724    226693.07    23.049866   -54.610282   -18.910084    142.66996    435.38119    23.500738    22.155782   0.34700694    435.72819    -1518.609 
    5700   -102955.62   -93564.737    228.04539    20724    226842.64     4.231582    18.074877   -73.855722    68.475591    435.22451    23.512721    22.167079    0.4253465    435.64985   -1505.2346 
    5800   -103013.78   -93565.296    229.44414    20724    226684.48    11.813029   -14.313115   -19.572569     69.32477    435.31306    23.502132    22.157096    0.3810678    435.69413   -1508.9861 
    5900   -103026.84   -93526.945    230.69258    20724    226682.29   -6.0446357    -75.34538     17.55633    39.655142     435.2787    23.502946    22.157863   0.39824826    435.67695   -1547.7009 
    6000   -102935.25   -93511.325    228.84783    20724    226642.08   -35.154673    62.178455   -177.44433    9.8018592    435.35991    23.498669    22.153831   0.35764443    435.71756   -1563.0547 
    6100   -103067.53   -93510.087    232.09003    20724    226624.31   -46.952276   -133.85134   -85.384934    78.379443    435.22398    23.501418    22.156422   0.42560955    435.64959    -1565.417 
    6200   -102980.63   -93484.102    230.61073    20724    226680.79   -33.703525   -34.406056   -14.784262   -51.920256    435.32291    23.501675    22.156665   0.37614511    435.69905   -1589.6635 
    6300   -103003.94   -93455.837     231.8633    20724    226673.08   -14.542308     237.0381   -41.335639   -239.32939    435.43093     23.49836    22.153539    0.3221374    435.75306   -1621.1229 
    6400   -102940.54   -93490.398    229.48426    20724    226573.84    36.700766   -43.502866    257.05596    -103.4508    435.28101    23.497261    22.152503   0.39709607     435.6781   -1592.0577 
    6500   -103004.28   -93481.103    231.25792    20724    226530.67   -75.919803   -174.26619    -219.3429    165.84968    435.06477     23.50086    22.155897   0.50521649    435.56998   -1597.5741 
    6600   -102889.13   -93414.086    230.08906    20724    226582.04    17.854264   -24.959173   -33.988631     112.5106    434.94164    23.506851    22.161545   0.56678205    435.50842   -1668.0377 
    6700   -102895.31   -93405.051    230.45853    20724    226575.16   -19.020385    209.85846   -274.52505    7.6054312    435.12425    23.501562    22.156558   0.47547724    435.59972   -1677.6978 
    6800   -102930.89   -93400.018    231.44488    20724    226433.95   -49.226465    60.971408   -12.043298    -196.6075    435.30073    23.489474    22.145162   0.38723597    435.68796   -1686.1288 
    6900   -102899.83   -93368.387     231.4586    20724    226452.49   -65.653329    15.004792    4.5300929   -216.49487    435.15394    23.494397    22.149803   0.46062796    435.61457    -1715.839 
    7000   -102931.98   -93339.195    232.94838    20724    226666.82   -28.561407    49.181498    48.157522   -183.02324    435.23397    23.503352    22.158246   0.42061716    435.65458   -1742.6766 
    7100   -102813.12   -93351.632    229.75991    20724    226609.89    105.23791    67.940904    107.15682    140.61601    435.19467    23.501461    22.156463   0.44026288    435.63494    -1739.582 
    7200   -102841.17    -93351.06    230.45491    20724    226624.81    -7.637778    119.54573   -138.90257   -3.5564972     435.4093    23.496441    22.151731   0.33295233    435.74225   -1737.6441 
    7300   -102882.22   -93292.996    232.86178    20724    226598.16   -70.051995   -182.44496   -144.35729    116.64626    435.22586    23.500011    22.155096   0.42466785    435.65053   -1792.8236 
    7400   -102894.69   -93352.515    231.71933    20724    226594.24    72.213472   -102.84777    157.49676    161.99143     435.1187    23.502701    22.157632   0.47824776    435.59695   -1741.5536 
    7500   -102869.25   -93319.661     231.8993    20724    226668.29    -23.60491    148.40965    145.16914   -364.39352    435.27674    23.502273    22.157229   0.39923161    435.67597   -1766.9021 
    7600    -102891.4   -93294.771    233.04167    20724    226846.91   -9.8511331    -13.34885   -38.122796    21.918247    435.33916    23.509846    22.164368   0.36802009    435.70718   -1788.8791 
    7700   -102759.01   -93264.936    230.55131    20724    226639.58    63.530755   -21.594351    1.6978443    210.48877    435.33871    23.499112    22.154248   0.36824467    435.70696   -1830.4248 
    7800   -102835.25   -93278.293    232.07836    20724    226748.75    59.515747   -147.93408    242.35664    84.124679    435.67571    23.495679    22.151012   0.19974391    435.87546   -1815.9532 
    7900   -102798.69   -93284.392    231.04241    20724    226702.27   -27.308991    45.208272   -187.92503    60.789783    435.43165    23.499853    22.154947   0.32177392    435.75343   -1807.8116 
    8000   -102772.59   -93285.864    230.37274    20724    226708.24   -4.3800879    17.683192    3.7885884   -34.612044    435.30528    23.503574    22.158455   0.38495982    435.69024   -1810.0828 
    8100   -102737.93   -93252.016    230.35297    20724    226653.13    36.494443    96.035171    177.06854   -163.62038    435.38989    23.498433    22.153609   0.34265417    435.73255   -1846.6623 
    8200   -102732.72   -93248.571    230.31012    20724    226594.55    66.286452   -35.708039    310.32351    -75.75612    435.41836    23.494628    22.150021   0.32842202    435.74678   -1853.9989 
    8300   -102689.22   -93239.593    229.47185    20724    226699.41    29.312561    37.953988    226.81621   -176.83251    435.27289     23.50399    22.158847   0.40115513    435.67404   -1858.3891 
    8400   -102832.57   -93214.424    233.56423    20724    226798.61    5.0709853    -76.03953   -210.94868    302.20116    435.30214    23.508343    22.162951   0.38652968    435.68867   -1883.2377 
    8500   -102822.84   -93232.949    232.87798    20724     226624.8   -56.745617   -51.144884   -225.77175    106.67978    435.38638    23.497059    22.152313   0.34440894    435.73079   -1866.2741 
    8600   -102802.72    -93213.13    232.87068    20724    226839.91   -36.909862   -148.60217    117.38295   -79.510364    435.32165    23.509956    22.164472   0.37677559    435.69842    -1882.511 
    8700   -102810.57   -93244.044    232.31063    20724    226658.18    1.4679655   -6.6124133    106.34641   -95.330098    435.27445    23.501811    22.156793   0.40037478    435.67483   -1858.6486 
    8800   -102764.42    -93214.36    231.91087    20724     226729.5   -59.287839    6.1210059   -230.59775    46.613232    435.39861    23.502156    22.157119   0.33829468    435.73691   -1884.4192 
    8900    -102663.8   -93205.492     229.6826    20724    226662.71    24.232889    34.928933   -14.509366    52.279099    435.36094    23.499711    22.154813   0.35713096    435.71807    -1898.987 
    9000   -102680.04   -93162.896    231.11151    20724    226828.88   -21.319567   -141.01828    73.568018     3.491563    435.38656    23.507632    22.162281   0.34431957    435.73088   -1936.7573 
    9100    -102752.6   -93156.117    233.03815    20724    226740.31    9.1136362   -79.915067    106.26531   0.99066129    435.29293    23.505569    22.160336   0.39113342    435.68407   -1950.4275 
    9200   -102730.82   -93192.539    231.62472    20724    226564.54   -7.6646758   -149.98191   -12.076294    139.06418    435.23458    23.498032     22.15323   0.42030915    435.65489   -1917.7782 
    9300   -102657.78   -93153.246    230.80528    20724    226583.22    15.805153    207.22754   -101.49011   -58.321972    435.41316    23.494181      22.1496    0.3310224    435.74418   -1957.9858 
    9400   -102791.28   -93118.847    234.88239    20724    226619.76   -78.891504   -59.083249   -262.51213    84.920864    435.16989    23.502642    22.157576   0.45265456    435.62255   -1989.4219 
    9500   -102593.85   -93079.136    231.05245    20724    226555.91   -37.406165   -40.929474   -159.78981    88.500788    435.25513     23.49703    22.152285   0.41003568    435.66516   -2030.9271 
    9600   -102664.33   -93061.357    233.19557    20724    226765.59    1.5783097    84.151254    -63.41121   -16.005115    435.28717    23.507035    22.161718   0.39401499    435.68119   -2046.6732 
    9700   -102764.59   -93043.974    236.05246    20724    226453.55   -124.66319   -220.96339   -60.095195   -92.930997    435.17462    23.493894    22.149329   0.45029035    435.62491    -2068.816 
    9800   -102595.97   -93037.328    232.11927    20724    226579.62    -5.810382   -13.669342   -30.107131    26.345327    435.19504    23.499881    22.154974   0.44007892    435.63512   -2076.2853 
    9900    -102557.3   -93045.939    230.97095    20724    226577.39    49.018503    176.17427   -257.81643    228.69767    435.12697    23.501604    22.156598   0.47411394    435.60109   -2072.9483 
   10000   -102650.29   -93027.564    233.67536    20724    226549.77    -86.41284   -160.98237    194.38332   -292.63947    435.22531    23.497516    22.152744   0.42494336    435.65026   -2087.7731 
   10100   -102581.44    -92965.16    233.51888    20724    226715.26    27.205713    20.639716    225.00242     -164.025    435.38506    23.501784    22.156767   0.34506929    435.73013   -2150.8526 
   10200   -102631.51    -92970.31    234.60974    20724    226667.11     25.00556    59.213847   -39.734184    55.537017    435.36391    23.499859    22.154953   0.35564514    435.71955   -2146.6206 
   10300   -102672.21   -93000.862    234.85612    20724    226550.09   -9.8677204    77.147459   -113.76872    7.0181037    435.23701    23.497217    22.152462   0.41909628     435.6561   -2119.8076 
   10400   -102595.88   -93004.304    232.91906    20724    226481.76   -59.350474    9.7683693    95.954575   -283.77437    435.25942    23.493068    22.148551    0.4078877    435.66731   -2115.8323 
   10500   -102499.31    -92986.09    231.01611    20724    226429.58     13.47839    8.1058302     123.4263   -91.096962     435.1132    23.494308     22.14972   0.48100056     435.5942   -2139.1721 
   10600   -102531.79   -92993.478    231.62543    20724    226455.14    44.533321    1.3567686    76.818381    55.424814     435.1661    23.494207    22.149624   0.45455168    435.62065   -2134.8413 
   10700   -102566.25   -92980.246    232.78368    20724    226602.23   -3.6057023   -179.12335     228.1672   -59.860963    435.05258    23.504901    22.159706   0.51130961    435.56389    -2143.089 
   10800   -102595.44   -92958.562    234.01905    20724    226505.43    20.804575    272.70805   -294.89892     84.60459    435.17058    23.496694    22.151969   0.45231146    435.62289   -2171.0284 
   10900   -102537.14   -92939.175    233.07399    20724    226470.48     67.83205    -116.4502    84.298849     235.6475    435.14735    23.495508    22.150851   0.46392452    435.61128   -2192.2999 
   11000   -102412.63   -92892.835    231.17572    20724    226480.65    53.611528    139.05192    81.380195   -59.597535    435.14759    23.496029    22.151342   0.46380423     435.6114   -2237.7864 
   11100   -102582.29   -92912.556    234.81691    20724    226661.48    29.558498    181.38967    363.70741   -456.42159    435.17693    23.504615    22.159437   0.44913505    435.62606   -2217.3295 
   11200   -102586.93   -92944.384     234.1567    20724    226422.23    44.573569    102.17403    231.45465   -199.90798    434.99693    23.497066     22.15232   0.53913315    435.53607   -2195.0916 
   11300   -102515.56   -92907.796    233.31206    20724    226578.84    32.726182    95.673289    184.10291   -181.59766    434.98405    23.505539    22.160308   0.54557486    435.52963   -2223.6069 
   11400   -102564.54    -92913.89    234.35356    20724    226401.41    25.254072    36.122119   -57.827701    97.467798    435.02408    23.495254    22.150611   0.52556142    435.54964   -2224.6936 
   11500    -102550.4   -92878.003    234.88157    20724    226348.17   -19.433173   -125.09163   -128.17608     194.9682    434.95949    23.494235     22.14965   0.55785733    435.51734   -2259.3086 
   11600   -102569.83   -92875.598    235.41167    20724    226307.62   -41.438182   -35.502061   -156.46299    67.650503    434.82419    23.495785    22.151112     0.625507    435.44969   -2262.3387 
   11700   -102542.13   -92882.605    234.56888    20724    226327.97   -94.463478   -191.79215    26.776838   -118.37512    435.12761    23.488648    22.144383   0.47379556     435.6014   -2253.1634 
   11800    -102550.5   -92861.001    235.29679    20724    226467.85    52.904129   -35.772022    194.17419   0.31021561    435.07006    23.497459     22.15269   0.50257091    435.57263   -2279.7119 
   11900   -102528.22   -92862.786    234.71239    20724    226360.92   -38.741548   -27.878044    5.8666264   -94.213225    435.07726    23.491717    22.147276   0.49897188    435.57623   -2277.3693 
   12000   -102535.72   -92836.378    235.53579    20724    226323.85   -27.297887    11.677125    68.758525   -162.32931    435.08856    23.489488    22.145175   0.49331934    435.58188    -2307.653 
   12100   -102404.23   -92820.299    232.73339    20724    226319.02    66.444152    143.86041    136.55626   -81.084221    434.88078    23.494848    22.150228   0.59721222    435.47799   -2328.3028 
   12200   -102412.62   -92794.033    233.57491    20724    226623.48   -10.823627   -22.425606   -64.315922    54.270648    435.17488      23.5027    22.157631   0.45016014    435.62504   -2342.1895 
   12300   -102445.26    -92800.42    234.21228    20724    226389.36    40.363293    161.18968   -196.12047    156.02067    434.79004    23.500951    22.155982   0.64257906    435.43262   -2347.8619 
   12400   -102449.21   -92791.153    234.53326    20724    226458.51   -93.952021   -209.06314    27.925752   -100.71867    434.82212    23.503672    22.158548   0.62653849    435.44866   -2349.4674 
   12500   -102397.64   -92787.395    233.37228    20724    226433.28      60.6487     270.9141    171.32432   -260.29232    434.81677    23.502508     22.15745    0.6292144    435.44599    -2361.893 
   12600   -102466.88   -92811.279    234.47361    20724    226642.04   -18.224793   -150.11667    241.82287   -146.38058    434.82376     23.51315    22.167483   0.62571987    435.44948   -2329.6046 
   12700   -102555.87   -92777.433    237.45649    20724    226503.45   -77.423604     59.29695   -287.98341   -3.5843509    434.99438     23.50135    22.156358   0.54040857    435.53479   -2368.5619 
   12800   -102498.08   -92783.782     235.8991    20724    226548.92   -35.556726    3.2500986   -1.0297045   -108.89057    434.85775    23.507401    22.162063   0.60872413    435.46648   -2362.7825 
   12900    -102473.9   -92823.446    234.34864    20724    226568.04   -10.240372   -97.938165   -104.47349    171.69054    435.11882    23.501339    22.156348   0.47818796    435.59701   -2325.9008 
   13000   -102465.08   -92786.748    235.02557    20724    226670.03   -12.436853   -15.469984   -196.75443    174.91386    435.07894    23.507705     22.16235   0.49813017    435.57707   -2360.2361 
   13100   -102464.18   -92780.795    235.14848    20724    226700.35    -38.31949    185.43935   -75.997573   -224.40025    435.04492    23.510196    22.164698   0.51514018    435.56006   -2365.4702 
   13200   -102406.07   -92768.088    234.04583    20724    226596.63    19.615398   -103.34558    90.974805    71.216965    435.01593    23.505601    22.160366   0.52963373    435.54557   -2385.5075 
   13300   -102426.66    -92779.26    234.27452    20724    226623.31    40.871117    67.983941   -73.547991     128.1774    435.14973    23.503371    22.158263   0.46273364    435.61247   -2375.4214 
   13400   -102444.42   -92755.188    235.29036    20724    226684.95   -8.1759537   -16.172288    84.573914   -92.929486    435.07366    23.508621    22.163213   0.50076827    435.57443   -2396.9861 
   13500   -102370.54   -92721.542    234.31344    20724    226662.84    12.856454    42.523259   -21.361508    17.407611    435.19103    23.504305    22.159144   0.44208674    435.63311   -2430.8231 
   13600   -102423.24   -92721.371    235.59736    20724    226579.63    -19.16648   -101.97189   -71.233895    115.70634     435.3104    23.496768    22.152038   0.38239891     435.6928   -2433.0911 
   13700   -102379.65   -92704.134    234.95741    20724    226728.04    47.097348    295.58911   -12.581863    -141.7152    435.33917    23.503685     22.15856   0.36801587    435.70718   -2450.5158 
   13800   -102372.58   -92687.172    235.19753    20724    226636.45    80.519318     61.47726    112.49438    67.586316    435.05723     23.50655    22.161261   0.50898408    435.56622   -2473.1899 
   13900   -102396.38    -92654.86    236.56013    20724    226651.68   -102.21161    -152.6844   -273.29445    119.34404    435.06637    23.507093    22.161773   0.50441407    435.57079   -2496.6197 
   14000   -102339.51   -92625.182    235.89984    20724    226349.41    60.446266    31.754736   -85.159683    234.74375    434.77159    23.499375    22.154497   0.65180535    435.42339   -2544.1397 
   14100   -102335.39   -92626.666    235.76366    20724    226484.72   -31.429991    162.07457   -130.66473    -125.6998    434.78569    23.506017    22.160758   0.64475556    435.43044   -2534.6257 
   14200   -102229.13   -92625.395    233.21415    20724     226308.1   -98.814334   -231.56683    84.269148   -149.14532    434.66391    23.500141    22.155219   0.70564528    435.36955   -2538.9357 
   14300   -102347.15   -92597.046     236.7685    20724    226584.23   -20.581017    74.858121    7.2029389   -143.80411    434.79181    23.511015     22.16547   0.64169537     435.4335   -2565.9545 
   14400    -102253.2   -92566.008    235.24079    20724    226367.33   -7.5819305    10.886839    101.37819   -135.01082    434.83061    23.498711     22.15387   0.62229685     435.4529   -2602.9933 
   14500   -102192.82   -92592.627    233.12814    20724    226487.62    84.281837    75.559014   -12.824565    190.11106    434.56628    23.512101    22.166494   0.75445889    435.32074   -2577.5454 
   14600   -102233.96   -92567.557    234.73592    20724    226356.46     74.41465    237.48709   -91.909762    77.666626    434.91096    23.495976    22.151292   0.58211916    435.49308   -2608.5267 
   14700   -102205.34   -92526.603    235.03558    20724    226420.74   -48.569335    17.340117   -60.597394   -102.45073    434.69136    23.505247    22.160032   0.69192084    435.38328   -2643.5281 
   14800   -102188.67   -92505.575    235.14135    20724    226453.02    5.3911505    185.33953    86.252205   -255.41828    434.95782    23.499721    22.154822   0.55869054    435.51651   -2665.5398 
   14900   -102233.13   -92493.801    236.50689    20724    226302.29    5.5123388    52.232946    92.277747   -127.97368    434.76605    23.497079    22.152332   0.65457286    435.42063   -2682.3621 
   15000   -102240.16   -92467.992    237.30443    20724     226510.1   -1.5628209    100.39068     -212.939    107.85986     434.9637    23.502523    22.157464   0.55574928    435.51945   -2705.0824 
   15100    -102260.5   -92466.202    237.84178    20724    226513.93   -4.6553082   -197.36187    56.158315    127.23763    434.65329    23.511113    22.165563   0.71095623    435.36424    -2708.268 
   15200   -102236.21   -92439.043    237.91135    20724    226403.33   -18.027261   -91.687653   -39.445224    77.051096    434.74731    23.502831    22.157754   0.66394602    435.41125   -2736.7906 
   15300   -102172.12   -92434.397    236.46802    20724    226540.81    10.385641    142.12773    235.27087   -346.24168    434.91171    23.505521    22.160291   0.58174369    435.49346   -2740.0432 
   15400   -102146.53   -92428.201    235.99689    20724       226407   -15.036482   -101.20393    196.46406   -140.36958    434.69774    23.504361    22.159197   0.68872801    435.38647   -2749.2206 
   15500   -102128.93   -92395.304    236.36843    20724    226530.43    130.14556    255.50886   -35.261892    170.18973    435.01222    23.502267    22.157223   0.53149048    435.54371   -2787.6478 
   15600   -102243.96   -92389.096    239.31251    20724    226323.97    11.239902    231.42018    104.94943    -302.6499    434.62632    23.501981    22.156953   0.72443779    435.35076   -2796.2292 
   15700   -102104.12   -92381.002    236.11333    20724    226490.68     99.80083   -26.093192    198.37307    127.12262    434.69408    23.508803    22.163385   0.69055927    435.38464   -2803.4472 
   15800    -102150.6   -92404.187    236.67896    20724    226348.01    6.9430532    41.215055    14.563503   -34.949398    434.70898    23.500995    22.156024   0.68311135    435.39209    -2781.666 
   15900   -102139.39   -92391.677    236.71053    20724    226489.39   -21.939127    21.924369   -311.12902    223.38727    434.80418     23.50576    22.160516   0.63551112    435.43969    -2790.552 
   16000   -102136.67   -92354.614    237.54445    20724    226462.82   -43.473298    57.686285    -199.6044    11.498223    434.97528    23.499758    22.154857   0.54996225    435.52524   -2826.0068 
   16100    -102148.4   -92358.181    237.74277    20724    226427.13   -33.938743    70.868233    33.344197   -206.02866    434.82716    23.501908    22.156884   0.62401782    435.45118   -2826.5398 
   16200   -102105.93   -92333.693    237.30603    20724    226467.55    19.997506     228.3029    244.65197   -412.96235    434.73048    23.506619    22.161326   0.67236054    435.40284    -2855.674 
   16300   -102096.67   -92340.323    236.92026    20724    226451.62    24.196375    238.74999    33.066498   -199.22736    434.72876    23.505838     22.16059   0.67321985    435.40198   -2850.3492 
   16400   -102071.95   -92290.003    237.54174    20724    226292.68   -40.478216   -10.919224   -93.020399   -17.495025     434.4365     23.50549    22.160262   0.81935089    435.25585   -2902.0642 
   16500   -102158.17   -92272.117    240.06997    20724    226538.79    -51.36142   -15.305137   -26.587859   -112.19127     434.7792    23.508998    22.163569   0.64800142     435.4272   -2914.2096 
   16600   -102003.47   -92269.125    236.38596    20724    226516.73    20.778983    34.848094   -37.853959    65.342815    434.55226    23.513991    22.168276   0.76146873    435.31373   -2922.9392 
   16700   -102039.49   -92273.871    237.14534    20724    226431.71   -24.662618   -156.13219   -12.439829    94.584164    434.67301    23.506312    22.161037   0.70109649     435.3741   -2918.0512 
   16800   -101994.07   -92251.177    236.59355    20724    226416.63    5.9615287    200.50861   -34.203595   -148.42043    434.68782    23.505129    22.159921   0.69368999    435.38151   -2942.0781 
   16900   -102083.13   -92262.488    238.48151    20724     226563.4    11.752312   -31.369406    23.238642    43.387699    434.45436    23.519063    22.173058   0.81041983    435.26478   -2930.8432 
   17000   -101984.84   -92244.241    236.53765    20724    226419.81    -3.583699    26.256189    147.32332   -184.33061    434.26597    23.516708    22.170837   0.90461274    435.17059   -2952.9509 
   17100   -101968.39   -92262.908    235.68498    20724    226515.09    40.864503    118.58048    8.8546959   -4.8416674    434.58201    23.513101    22.167437   0.74659573     435.3286   -2932.6131 
   17200   -101990.12   -92197.536    237.80019    20724     226509.1    8.4709272    35.656444    144.37013   -154.61379     434.5564    23.513483    22.167797   0.75939751     435.3158   -2998.1662 
   17300   -101947.45   -92205.362    236.57382    20724    226286.71    20.147084    65.245538   -213.09802    208.29373    434.56715    23.501647    22.156638   0.75402448    435.32118   -2999.2519 
   17400   -102112.86    -92175.54    241.31495    20724    226431.93    -115.4159   -28.340454   -367.02309     49.11584    434.61018    23.508023    22.162649   0.73250829    435.34269   -3020.2271 
   17500    -101992.7   -92189.304    238.06272    20724    226275.95   -22.630731    100.61728   -90.187407   -78.322064    434.42381    23.504965    22.159766   0.82569705     435.2495   -3014.9823 
   17600   -102014.51   -92155.317    239.41761    20724    226430.87     35.02039    75.562039    416.38533    -386.8862    434.69593    23.505649    22.160411   0.68963266    435.38557   -3048.5044 
   17700   -101937.44   -92117.364    238.46768    20724    226258.46    28.678088   -28.755675    182.60789   -67.817955     434.5365    23.501008    22.156036   0.76934767    435.30585   -3091.4119 
   17800   -101971.72   -92104.497    239.61257    20724     226230.1   -54.229489    44.816018   -145.93953   -61.564954    434.26819    23.506794    22.161491   0.90350627    435.17169   -3101.2732 
   17900   -101908.97   -92111.266     237.9245    20724    226122.71   -25.668833    -152.7649    266.25838   -190.49999    434.37299    23.498379    22.153557   0.85110607    435.22409   -3099.9323 
   18000   -101913.67   -92117.475    237.88775    20724    226268.25   -71.973089   -45.352844   -313.76219    143.19577    434.40718    23.505015    22.159813   0.83400787    435.24119   -3089.2638 
   18100   -101874.73   -92155.803    236.01137    20724    226179.63     70.46421    165.56923    32.469967    13.353428    433.92945    23.513344    22.167666    1.0728767    435.00232    -3060.146 
   18200   -101914.35    -92085.32    238.68525    20724    226218.02   -2.3789269    224.35647    18.466096   -249.95935     434.3216    23.504721    22.159536    0.8768019     435.1984    -3127.333 
   18300   -101871.84   -92088.246    237.58195    20724    226238.48    46.828941    96.447805    78.184809   -34.145789    434.30638    23.506196    22.160927   0.88441161    435.19079   -3128.8023 
   18400   -101870.89   -92019.165    239.23625    20724    226347.12   -5.5674197    169.43986   -265.57872    79.436598    434.36383    23.510284    22.164781   0.85568264    435.21952   -3193.4269 
   18500   -101844.29   -91990.314    239.29109    20724    226364.06   -2.6200519   -42.346259   -57.082437    91.568541    434.28924    23.513183    22.167514   0.89297771    435.18222   -3223.5653 
   18600   -101889.37   -91999.428    240.16435    20724     226294.3   -21.343053   -19.023834    118.79172   -163.79704    434.27113     23.51005     22.16456   0.90203303    435.17317   -3217.8239 
   18700   -101855.18   -91983.316    239.72537    20724    226444.55     13.75926    132.08254    162.11263   -252.91739    434.64083    23.507849    22.162485   0.71718346    435.35802   -3230.1452 
   18800   -101896.97   -91973.889     240.9692    20724    226343.13    4.2523492    10.719194    107.93261   -105.89476    434.75127    23.499598    22.154707   0.66196471    435.41324   -3244.4279 
   18900   -101810.44   -91953.358    239.36651    20724    226554.43    33.047425   -24.189028    42.238386    81.092915    434.85954    23.507638    22.162287   0.60783036    435.46737   -3260.6145 
   19000   -101779.15     -91973.8    238.11016    20724    226485.17    67.800575    124.44444    7.6586848    71.298599    434.89154    23.503179    22.158083   0.59183017    435.48337   -3245.5338 
   19100   -101820.39   -91935.832    240.03365    20724    226476.04   -12.026594    -95.15335   -107.21528    166.28885    434.82482    23.504509    22.159337   0.62519163    435.45001   -3280.8672 
   19200   -101799.35   -91909.267    240.16766    20724    226367.34   -35.038152   -44.668344    82.717425   -143.16354    434.46996    23.508462    22.163063   0.80261926    435.27258   -3310.8269 
   19300   -101847.65   -91922.483    241.01974    20724    226281.21   -46.328974   -269.80709    41.163108    89.657061    434.50134    23.503141    22.158046   0.78692902    435.28827   -3300.7326 
   19400    -101758.8   -91947.806    238.24714    20724    226400.86    53.170592    120.32801    110.38972   -71.205953    434.58548    23.507078    22.161758   0.74486095    435.33034   -3279.1367 
   19500   -101843.47   -92001.204    239.00657    20724    226277.32    19.454236   -38.788139    202.34929   -105.19844    434.51521    23.502564    22.157503   0.77999575     435.2952   -3228.2765 
   19600   -101825.01   -91962.302      239.503    20724    226354.99   -26.350594    85.414925   -123.39826   -41.068452    434.69286    23.501793    22.156776   0.69116913    435.38403    -3263.003 
   19700   -101787.26   -91928.787    239.40012    20724    226446.48    40.441272    6.4182584    -9.649251    124.55481    434.74662    23.505089    22.159883   0.66429242    435.41091     -3296.69 
   19800   -101807.24    -91897.65    240.64152    20724    226305.54   -54.099641   -125.93528   -57.847033    21.483388    434.81347    23.495966    22.151283   0.63086442    435.44434   -3328.3797 
   19900   -101806.18   -91896.981    240.63191    20724    226453.01    53.261821    11.636283   -35.268409    183.41759    434.73579     23.50572    22.160479   0.66970383     435.4055   -3330.7957 
   20000    -101818.2   -91880.265    241.32979    20724    226467.69   -14.024788    206.80856   -42.374512   -206.50841    434.67049    23.508248    22.162862   0.70235384    435.37285   -3345.3157 
   20100   -101780.65   -91872.881    240.59723    20724     226337.5   -25.142476    9.6329967    234.61047   -319.67089     434.6442    23.502201     22.15716   0.71550179     435.3597   -3358.4715 
   20200   -101747.69   -91901.056    239.11276    20724    226261.53   -67.309975   -12.269238    150.52087   -340.18156    434.56101    23.500505    22.155562   0.75709271    435.31811   -3329.7374 
   20300   -101848.25    -91868.18    242.35294    20724    225992.93   -37.715368    89.260274    60.951021    -263.3574    434.50163    23.488156     22.14392     0.786784    435.28842   -3375.3047 
   20400   -101825.18   -91820.117    242.95998    20724    226206.67   -103.00152   -186.86596   -250.54119     128.4026    434.60776    23.496392    22.151684   0.73371978    435.34148   -3413.7766 
   20500   -101787.16   -91831.921    241.74997    20724       226230    7.4959082   -6.2413139   -20.495666    49.224704    434.64169    23.496687    22.151962   0.71675471    435.35845   -3405.8644 
   20600   -101640.36   -91806.356    238.80587    20724    225951.71   -10.106565    31.796789   -160.26838    98.151897    434.18526     23.49457    22.149966   0.94496901    435.13023   -3440.0726 
   20700   -101781.89   -91767.176    243.19428    20724    226229.73   -47.469992   -142.19693    49.041752     -49.2548     434.2897    23.506193    22.160924   0.89275149    435.18245   -3471.3454 
   20800   -101682.75   -91823.826      239.411    20724    225766.55   -10.459484   -62.632171    56.783562   -25.529844    433.99916    23.489976    22.145635    1.0380224    435.03718   -3430.8068 
   20900   -101721.78    -91784.73    241.30822    20724    226026.87   -1.9267441   -153.20851    -50.81755    198.24583    433.99889    23.503522    22.158406    1.0381549    435.03705   -3463.2371 
   21000   -101654.02   -91731.153    240.96393    20724    225930.52   -70.613299    111.03904    -97.85518   -225.02376    433.91839    23.500691    22.155737     1.078407    434.99679   -3515.5741 
   21100   -101725.25   -91791.164    241.23635    20724    225871.19     102.1416    88.664118    91.519986    126.24071    433.92223    23.497502     22.15273    1.0764868    434.99871    -3467.712 
   21200    -101726.6   -91776.394    241.62779    20724    225731.07   -25.213497    62.875862   -208.46094    69.944584    434.03209    23.487239    22.143055    1.0215533    435.05365   -3481.3156 
   21300   -101810.98   -91787.464    243.40807    20724    225745.09   -71.730787   -87.399726   -112.42191   -15.370723    433.69207    23.497174    22.152421    1.1915642    434.88364   -3468.0091 
   21400   -101680.16   -91754.939    241.02098    20724    226027.11   -2.9024426    44.493751   -25.781705   -27.419374    434.00424     23.50339    22.158281     1.035482    435.03972   -3495.6667 
   21500   -101737.16   -91744.362    242.66217    20724    225908.27    18.390933    1.2124745   -59.264031    113.22435    434.02928    23.496532    22.151816    1.0229596    435.05224   -3513.1765 
   21600   -101625.23   -91744.142    239.94925    20724    225968.12   -91.665979   -324.48702    58.849403   -9.3603229    434.03593    23.499464    22.154581    1.0196338    435.05557   -3507.7831 
   21700   -101707.88   -91752.896    241.74393    20724    225937.63      98.9548    33.050177    287.43517    -23.62095    434.12376    23.495502    22.150845   0.97572188    435.09948   -3509.8584 
   21800   -101645.16   -91760.817    240.02827    20724    226102.02    26.347392    24.360175    201.74936   -147.06735    434.11478     23.50429    22.159131   0.98021039    435.09499   -3495.9617 
   21900   -101732.97   -91766.308    242.02742    20724    226003.79   -15.060741     22.49227   -138.71941    71.044913    433.99572    23.502408    22.157355    1.0397379    435.03546   -3492.5199 
   22000   -101663.07   -91766.496    240.32552    20724    225911.62    5.8072461    104.38377   -231.96406    145.00203    433.97563    23.498158    22.153349    1.0497853    435.02541   -3496.2104 
   22100   -101618.33   -91750.112    239.63687    20724    225941.75    -18.17516    -144.1151    162.90433   -73.314712    433.80797    23.504266    22.159108    1.1336163    434.94158   -3511.0512 
   22200   -101689.52   -91746.065    241.46376    20724    226151.43    44.005351    59.357378    84.343794   -11.685119    434.04716     23.50869    22.163278    1.0140203    435.06118   -3513.7686 
   22300   -101688.68   -91756.403    241.19238    20724    226009.21    36.262743    92.609744   -70.059437    86.237922    433.91553    23.504861    22.159668    1.0798329    434.99537   -3507.5065 
   22400   -101660.67   -91732.177    241.10056    20724    226022.56    -41.20165   -52.358316   -65.611691   -5.6349437    433.91565    23.505552     22.16032    1.0797759    434.99542   -3530.4851 
   22500   -101543.26   -91723.722    238.45472    20724    225954.52    69.532138    -19.28414    53.385104    174.49545    433.82672    23.504422    22.159255    1.1242391    434.95096   -3544.2534 
   22600   -101595.58   -91703.952    240.20528    20724    225979.11    24.001152    111.27023    -142.7335    103.46672     433.9068    23.503532    22.158416    1.0842004      434.991    -3563.613 
   22700   -101548.06   -91694.031    239.29223    20724    225689.51   -15.772938   -12.671028   -134.58484    99.937057     433.7024    23.494001     22.14943     1.186398     434.8888   -3582.4081 
   22800   -101604.63   -91700.014    240.52074    20724    225929.47   -44.530575   -191.33737    13.871628    43.874016     433.7588     23.50496    22.159762    1.1582013      434.917   -3567.1139 
   22900   -101676.39   -91723.105    241.70256    20724    225860.51    68.558032    5.9197334    14.570109    185.18425    433.74182    23.501832    22.156813    1.1666878    434.90851   -3555.6306 
   23000   -101607.26   -91703.007    240.51177    20724     225986.6    1.6067196   -4.4663049    48.367562   -39.081098    433.73169    23.508666    22.163256    1.1717545    434.90345   -3569.2092 
   23100    -101573.9   -91672.411    240.44481    20724    225736.38    17.861688    8.7556661    134.64512   -89.815718    433.63841    23.498174    22.153364    1.2183925    434.85681   -3607.4257 
   23200   -101534.46   -91610.876    240.98127    20724    226035.36     78.66098    153.94179    447.83905    -365.7979    433.72878    23.511281    22.165721    1.1732082    434.90199    -3664.774 
   23300   -101609.64       -91621    242.56108    20724    226001.12    57.659647    165.89168   -268.38104     275.4683    433.96196    23.503183    22.158086    1.0566201    435.01858    -3654.747 
   23400   -101569.14   -91603.186    242.01014    20724    226075.58    3.3261627   -130.47403    218.52086   -78.068345    433.75755    23.512592    22.166957    1.1588235    434.91638   -3668.5962 
   23500   -101639.16   -91611.236    243.51498    20724    226116.94   -5.8557368    8.4745746    89.346817    -115.3886    433.72257    23.515691    22.169879    1.1763134    434.89889    -3661.538 
   23600   -101552.55   -91610.759    241.42348    20724    226026.79    24.177349    269.15549   -20.277775   -176.34567    433.66879    23.512461    22.166834    1.2032059    434.87199   -3666.3131 
   23700   -101559.27   -91591.853    242.04576    20724    226021.31    -78.36154   -68.213166   -155.87161   -10.999844     433.6733    23.512054    22.166449    1.2009476    434.87425   -3681.4914 
   23800   -101527.57   -91582.721    241.49765    20724    225984.25   -20.938505    38.349105   -44.964105   -56.200514     433.8271    23.505958    22.160703    1.1240487    434.95115   -3696.8883 
   23900   -101542.76   -91580.931    241.91016    20724    226058.69   -18.709037   -49.250639    5.1610904   -12.037561    433.83793    23.509536    22.164076    1.1186336    434.95657   -3696.4294 
   24000   -101538.45   -91564.624    242.20141    20724    225906.76    0.6667707    88.243635    214.09322   -300.33654    433.50531    23.510649    22.165125    1.2849461    434.79025   -3719.4139 
   24100   -101592.19   -91591.327    242.85796    20724    225922.15    61.195452    200.93829    38.268995   -55.620928    433.55231    23.510175    22.164678    1.2614451    434.81375   -3699.4773 
   24200   -101448.07   -91514.067     241.2344    20724    226195.74    54.774091   -10.184793    29.045602    145.46146    434.11049    23.509278    22.163832   0.98235622    435.09284    -3766.999 
   24300   -101394.13   -91506.822    240.10045    20724    225900.43   -4.4528349   -177.80484   -4.3226923    168.76902    433.70394    23.504935    22.159738     1.185628    434.88957   -3781.0086 
   24400   -101455.94   -91442.688    243.15887    20724    226064.29    24.280004   -109.89493    61.316597    121.41835     433.7307    23.512733     22.16709    1.1722508    434.90295   -3844.2173 
   24500   -101514.83   -91489.045    243.46326    20724    226049.21   -32.610853    208.43116    -230.8017    -75.46202    433.49664    23.518296    22.172334    1.2892808    434.78592   -3795.6666 
   24600   -101458.24    -91487.96    242.11529    20724    225901.85     39.41739   -42.273428     118.9447    41.580901    433.65797    23.506255    22.160982    1.2086156    434.86658    -3807.128 
   24700   -101366.93   -91438.421    241.10098    20724    226059.15   -4.9344822   -194.59592    115.62555    64.166928    433.55479    23.517235    22.171335    1.2602069    434.81499   -3849.2749 
   24800   -101407.73    -91441.35     242.0206    20724    226025.99    149.87852    124.64012    189.64834    135.34709    433.46178    23.518033    22.172087    1.3067079    434.76849   -3857.8987 
   24900   -101355.78   -91418.468    241.31474    20724    225966.24    47.896048    128.57279    88.477276   -73.361922    433.49411    23.514048    22.168329    1.2905466    434.78465   -3874.9899 
   25000   -101386.85   -91391.288    242.72911    20724    225979.81   -9.2907522    219.28138   -357.88516    110.73152    433.75714    23.507623    22.162272    1.1590299    434.91617   -3901.7792 
   25100   -101411.01   -91364.329    243.97052    20724    226070.35    3.2475535    -58.18621   -64.485934     132.4148    433.55173    23.517901    22.171962    1.2617374    434.81346   -3928.3411 
   25200   -101348.15   -91376.567      242.147    20724    226000.22   -2.3349682    120.72951   -219.82553    92.091116    433.86312    23.505813    22.160566    1.1060419    434.96916   -3917.5014 
   25300      -101427   -91407.674    243.30623    20724    226173.09    70.371947   -8.0509948    152.87564    66.291197    433.77963    23.517064    22.171173    1.1477872    434.92741    -3886.477 
   25400   -101411.48    -91362.15    244.03481    20724    226006.15    18.102365   -205.73395   -13.305319    273.34636    433.90002    23.505122    22.159914    1.0875878    434.98761   -3934.0004 
   25500   -101394.76   -91359.068    243.70363    20724    225889.96   -42.944465    103.00107   -406.26383    174.42937    433.53032    23.509097    22.163662    1.2724408    434.80276   -3939.9355 
   25600   -101336.16   -91334.632    242.87398    20724    226184.08    67.518483   -72.780409    150.27075    125.06511    433.66473    23.520751    22.174649    1.2052343    434.86997   -3960.8118 
   25700   -101436.51   -91381.143    244.18149    20724    226041.28   -19.747042    2.3233713   -75.904426    14.339929    433.84873    23.508338    22.162947    1.1132353    434.96196   -3919.1144 
   25800   -101420.72   -91350.534    244.54144    20724    225945.08   -9.9403711     35.80436   -108.86149    43.236017    433.66793    23.508234    22.162849    1.2036375    434.87156   -3950.1948 
   25900   -101296.42   -91335.672    241.88381    20724    226166.53    21.380834   -28.126977   -7.5529541    99.822433     434.0572    23.509203    22.163762    1.0090007     435.0662   -3959.2514 
   26000   -101353.59    -91339.24    243.18541    20724    226144.56     83.37929     80.86067    185.92738   -16.650181    434.00273    23.509536    22.164076    1.0362345    435.03897   -3963.5278 
   26100   -101385.63   -91332.775    244.12041    20724    226068.79    -64.97019    10.376436   -16.569715   -188.71729    433.85499    23.509599    22.164135    1.1101069    434.96509   -3965.0367 
   26200   -101418.97   -91327.435    245.05971    20724     226038.7    118.90926    115.81498    218.92808    21.984713    434.14605    23.500153     22.15523   0.96457415    435.11063   -3982.9254 
   26300   -101365.46   -91339.916    243.45738    20724       226180   -68.014092    69.420001   -241.59202   -31.870259    434.19805    23.506089    22.160826    0.9385764    435.13662   -3958.6383 
   26400    -101390.6   -91304.255    244.93381    20724    225982.02   -44.391881   -34.885573   -101.25748    2.9674066    433.88045    23.504397    22.159231    1.0973725    434.97783   -4001.8063 
   26500   -101433.77   -91310.399    245.83295    20724    226072.38   -127.28827   -236.69923   -33.921719   -111.24386    434.06485    23.504102    22.158953    1.0051737    435.07003   -3992.4942 
   26600   -101247.62   -91281.345    242.01806    20724    226186.75    15.352318   -5.2764129   -83.363197    134.69656    433.93232    23.513636    22.167941    1.0714402    435.00376   -4025.4075 
   26700   -101390.21   -91257.088    246.06979    20724    226117.48    -52.29259   -224.74409    -34.47178     102.3381    433.70855    23.516099    22.170264    1.1833231    434.89188   -4049.3147 
   26800   -101251.32   -91271.468    242.34759    20724    226176.14   -13.912247    23.302294    42.429549   -107.46859    433.71159    23.519067    22.173061    1.1818047     434.8934   -4036.2001 
   26900   -101356.78   -91277.124    244.77125    20724    226167.19   -21.420927   -10.412019    187.25306   -241.10382    433.81477    23.515805    22.169986    1.1302146    434.94499    -4032.843 
   27000   -101297.57   -91287.929    243.07099    20724     226061.1    4.3495599    -19.29002   -5.6390264    37.977726    433.54196    23.517685    22.171758    1.2666216    434.80858   -4025.4409 
   27100   -101333.39   -91317.243    243.22903    20724    225980.11    13.928308    205.72511   -181.44788    17.507694     433.3731    23.518052    22.172104    1.3510475    434.72415   -4000.4032 
   27200   -101287.32     -91284.7     242.9006    20724    226091.85    107.65965    225.84926    85.504812    11.624876    433.57465    23.518398     22.17243    1.2502749    434.82493   -4037.4288 
   27300   -101242.96   -91257.297    242.48888    20724    226041.47    65.415166    204.10861    34.128461   -41.991574    433.75674     23.51084    22.165306    1.1592302    434.91597   -4062.6036 
   27400   -101294.12   -91239.956    244.15224    20724    225998.54   -55.354168   -10.088574   -111.39457   -44.579366    433.59587    23.512969    22.167312    1.2396628    434.83554   -4077.7448 
   27500   -101339.09   -91177.418    246.76296    20724    226338.33   -59.468642   -67.167849   -19.149468    -92.08861    433.77984    23.525648    22.179266    1.1476809    434.92752   -4130.3605 
   27600    -101271.1   -91156.394    245.62254    20724    226249.83   -29.271068   -83.823783    225.91784   -229.90726    433.78396    23.520936    22.174823    1.1456222    434.92958   -4157.9284 
   27700   -101295.58   -91148.724    246.40327    20724    226392.62    -62.22788   -203.72903    85.459388   -68.413995    433.42817    23.538012    22.190923    1.3235173    434.75168   -4160.7096 
   27800   -101153.84   -91167.342    242.50918    20724    226057.95    94.811995    57.379146    188.70885    38.347986    433.64891    23.514621    22.168869    1.2131457    434.86205   -4159.7082 
   27900   -101150.15   -91122.747    243.50237    20724    226117.79   -10.174156   -19.081502    92.420813   -103.86178    433.83418    23.512711    22.167069    1.1205084    434.95469   -4196.8056 
   28000    -101279.6   -91118.451    246.75033    20724    226245.22   -51.922903   -194.13711    97.897015   -59.528617    433.85357     23.51881    22.172819    1.1108156    434.96438   -4199.7263 
   28100   -101132.62   -91134.402    242.79372    20724    225974.89    40.701582    18.073641   -127.88185    231.91296    433.54878    23.513015    22.167356    1.2632119    434.81199   -4193.3142 
   28200   -101234.32   -91137.371    245.19114    20724    226090.14    -36.43905   -54.695054   -64.105086    9.4829896    433.60391    23.517515    22.171598    1.2356439    434.83956   -4184.9687 
   28300    -101197.4   -91124.788    244.60025    20724    226106.22    43.212703    47.078169   -98.919909    181.47985    433.75618    23.514223    22.168494    1.1595094    434.91569   -4202.7792 
   28400   -101209.92   -91088.668    245.78135    20724    225994.21   -2.9401946    78.502881   -266.65522    179.33176     433.6466    23.511368    22.165803    1.2143002     434.8609   -4241.1514 
   28500   -101122.93   -91063.529    244.27933    20724    226153.29   -70.338336   -110.94829   -20.359123   -79.707592    433.53307    23.522721    22.176506     1.271064    434.80414   -4258.4463 
   28600   -101233.14   -91080.918    246.53346    20724    226142.93    28.330856    56.659646    228.13048   -199.79756    433.49079    23.523329     22.17708    1.2922044      434.783   -4248.2952 
   28700   -101218.63    -91114.63    245.36238    20724    226186.03    10.682114    67.101612   -81.068224    46.012954    433.73902    23.518838    22.172845    1.1680891    434.90711   -4214.2542 
   28800   -101295.41   -91122.059    247.04646    20724    226209.95    16.561037    118.23736   -189.29199    120.73774    433.59298    23.524042    22.177752    1.2411077    434.83409   -4207.5986 
   28900   -101234.31    -91063.44    246.98625    20724    226186.02    -132.6103   -256.87819   -143.63708    2.6843576    433.85401     23.51572    22.169906    1.1105932    434.96461   -4260.6585 
   29000    -101190.3   -91087.548    245.33221    20724    226103.48    38.010666     151.2369   -321.33736    284.13246    433.65452    23.516837    22.170959    1.2103388    434.86486   -4247.6245 
   29100    -101160.2   -91063.169    245.19335    20724    226040.32    40.172575    129.65112    107.83686   -116.97026    433.88458    23.507317    22.161984    1.0953082    434.97989   -4273.7724 
   29200   -101100.23   -91007.203    245.09606    20724    225926.24    41.016479    -22.04138    25.467458    119.62336    433.69314    23.506571    22.161281    1.1910317    434.88417   -4336.2733 
   29300   -101215.53   -91050.155    246.85284    20724     226111.4  -0.24425375   -45.611557    135.16401   -90.285212    433.76118    23.514357     22.16862    1.1570092    434.91819   -4285.7441 
   29400   -101102.42   -91010.499    245.06923    20724    225910.31    6.1039618    145.86376   -85.531877   -42.019994    433.59224    23.508477    22.163077    1.2414818    434.83372   -4333.7957 
   29500   -101142.68   -90994.224    246.44192    20724    225985.97   -38.092023   -17.890987   -63.265421   -33.119662    433.82437    23.506122    22.160857     1.125415    434.94979   -4345.1679 
   29600   -101199.61   -91044.623    246.60074    20724    225936.39   -36.786257   -116.60877   -170.97565    177.22565     433.7669      23.5051    22.159894    1.1541484    434.92105   -4297.1285 
   29700   -101154.95   -91054.725    245.27072    20724    225952.51    11.907408     31.67031   -130.62236    134.67428    433.76991    23.505857    22.160607    1.1526437    434.92256   -4290.0134 
   29800   -101149.16   -91051.588    245.20627    20724    225947.22    -73.89574   -172.61769   -5.7998729   -43.269654    433.62873    23.509408    22.163955    1.2232327    434.85197   -4292.1588 
   29900   -101191.74   -91042.802    246.45364    20724    225863.09   -66.790508    -42.55423    139.64434   -297.46164    433.41749    23.510758    22.165228    1.3288574    434.74634   -4302.7214 
   30000   -101084.78   -91048.684     243.7134    20724    225816.14    104.96328    275.04142     225.2902   -185.44178    433.32728    23.510761    22.165231    1.3739624    434.70124   -4308.9702 
   30100   -101113.95   -91031.738    244.83342    20724    225748.14   -28.074457   -25.283306    104.70823    -163.6483    433.11731    23.512918    22.167265    1.4789438    434.59626   -4322.7304 
   30200   -101138.81   -91016.852    245.79852    20724    225646.85   -7.0629909   -18.847317     -92.4358    90.094145    433.11832    23.507615    22.162265    1.4784408    434.59676   -4341.6127 
   30300   -100971.94   -91001.995     242.1072    20724    225690.11   -7.3233527    -36.67067    -259.6179    274.31851    433.09668    23.510456    22.164943    1.4892607    434.58594    -4354.967 
   30400   -101030.67   -90992.458    243.76494    20724    225786.42     100.4863    134.32558    14.935215     152.1981     433.2192    23.512146    22.166537    1.4279989     434.6472   -4368.2957 
   30500   -101134.46    -90996.26    246.19292    20724    225680.78   -5.6570767   -218.51775    168.14969     33.39683    432.99069    23.512847    22.167198    1.5422548    434.53295   -4364.6636 
   30600   -101135.86   -91008.826    245.92184    20724     225619.7   -24.091406   -36.506118    48.531181    -84.29928    433.37114    23.499343    22.154467     1.352028    434.72317   -4355.0312 
   30700   -101117.83   -90980.597    246.16952    20724    225428.71   -33.515817   -180.68555     97.29334   -17.155242    433.04606     23.49821    22.153398    1.5145718    434.56063   -4387.5167 
   30800   -101106.47    -90997.88    245.47406    20724    225501.98   -9.8071278    250.83165    86.152496   -366.40553    432.94555    23.504756     22.15957    1.5648236    434.51038   -4373.1935 
   30900   -101125.51   -91004.521    245.77503    20724    225515.49   -5.9651398    48.830151   -7.3805227   -59.345048    432.94882    23.505372     22.16015    1.5631902    434.51201   -4368.4796 
   31000   -101099.23   -91012.496     244.9433    20724     225641.8    85.455489    41.586548   -117.95619    332.73611    433.02307    23.509938    22.164454    1.5260645    434.54914   -4361.2738 
   31100   -101174.52   -90956.632    248.12804    20724    225355.14     9.832879     56.54877   -134.42923    107.37909    432.90684    23.498153    22.153344    1.5841793    434.49102   -4423.3157 
   31200   -101140.77   -90958.371    247.26625    20724    225667.23    29.104503    122.38573    17.342021   -52.414245    433.02397    23.511238     22.16568    1.5256174    434.54958   -4413.8809 
   31300   -101086.62    -90959.22    245.93063    20724    225387.73    -36.53437   -117.42151   -55.491988    63.310388     432.4806     23.51143    22.165861    1.7972998     434.2779   -4419.1263 
   31400   -101193.15   -90990.286    247.76336    20724    225417.95   -39.306786   -158.21698    80.397115   -40.100497     432.7842    23.504757     22.15957    1.6455003     434.4297   -4388.3641 
   31500   -101054.75   -90979.747    244.65823    20724    225311.56    -71.35557   -81.307639   -52.003257   -80.755813    432.69565    23.501614    22.156607    1.6897736    434.38543   -4401.3731 
   31600   -101137.97   -90936.714    247.72422    20724     225391.8   -123.84622   -130.07389   -25.775734   -215.68903    432.74394    23.504487    22.159316    1.6656318    434.40957   -4440.5298 
   31700    -101107.4   -90934.114    247.04493    20724    225421.82    27.011295   -247.69142    306.03335    22.691954    432.80147    23.504489    22.159318    1.6368647    434.43834   -4453.0233 
   31800   -101063.13   -90944.314    245.72221    20724    225590.95   -33.946611   -88.746038   -173.38537    160.29158    432.71014    23.515787    22.169969    1.6825298    434.39267   -4434.7697 
   31900   -101008.58   -90916.258    245.07882    20724    225807.24    11.965742    -107.4615    122.49896    20.859772    433.12857     23.51569    22.169878     1.473315    434.60188   -4458.7655 
   32000   -101102.51   -90924.233    247.16623    20724    225579.41    -7.237377    107.64927   -266.21994    136.85854     433.2251    23.501206    22.156222    1.4250493    434.65015   -4459.1289 
   32100   -101058.96   -90924.624    246.09925    20724    225608.47   -25.705984   -61.784979   -93.485458    78.152485    433.18235    23.503879    22.158742    1.4464228    434.62878   -4457.1863 
   32200   -101072.26   -90850.988    248.21037    20724    225799.24   -56.130521   -96.800532    67.759824   -139.35085    433.17776    23.513938    22.168226    1.4487203    434.62648   -4525.7304 
   32300   -100932.49    -90802.56    245.99227    20724    225520.04    85.541098    148.38521   -95.901806    204.13989    432.76386    23.510631    22.165109    1.6556711    434.41953   -4589.6003 
   32400   -101021.54   -90817.516    247.79146    20724    225848.56    1.3602136    -18.19538   -56.706183    78.982204    433.01615    23.520894    22.174784    1.5295271    434.54567   -4562.9464 
   32500   -101085.12   -90827.804    249.08557    20724       225714   -2.2615437    121.79294    143.40303    -271.9806    432.97628    23.514969    22.169198    1.5494577    434.52574   -4557.4769 
   32600   -101017.33   -90842.342    247.08627    20724    225569.77     -45.7999   -74.312842    5.9006896   -68.987547    432.62071    23.517113     22.17122    1.7272447    434.34796    -4544.734 
   32700   -100932.39    -90822.04    245.51661    20724    225627.56    61.078442     224.2341    156.45076   -197.44953    432.62547    23.519996    22.173937    1.7248631    434.35034   -4569.4964 
   32800   -100974.44   -90830.171    246.34039    20724    225634.53    35.794444   -10.832587   -29.804025    148.01994    433.02797    23.509426    22.163972    1.5236151    434.55158   -4561.4169 
   32900   -101012.79   -90821.352    247.48591    20724    225804.37     123.5676    79.441499   -3.8325562    295.09387    433.08123    23.516826    22.170949    1.4969842    434.57822   -4570.5988 
   33000   -101000.64   -90793.844    247.85879    20724    225622.41    36.773803   -23.334585   -37.860534    171.51653    433.18515    23.504529    22.159355     1.445024    434.63018   -4601.6011 
   33100   -100978.17   -90780.136    247.64604    20724    225851.44     57.50023    148.51651   -8.3667374     32.35092    433.20654    23.515875    22.170052    1.4343318    434.64087   -4609.1755 
   33200   -100938.83   -90806.588    246.04836    20724    225841.19    103.87304    91.200096   -188.98713    409.40614    433.14619    23.516979    22.171093    1.4645031     434.6107   -4585.4902 
   33300   -100990.97   -90784.499    247.85082    20724    225996.07   -84.697438   -99.564416    -156.0364    1.5085061    433.45629    23.516626     22.17076    1.3094527    434.76575   -4596.0971 
   33400   -100964.09   -90836.736    245.92965    20724    225909.96   -26.649479   -48.673503     2.754347    -34.02928    433.29745    23.516454    22.170598    1.3888773    434.68632   -4549.2504 
   33500   -101129.73   -90833.538     250.0296    20724    225878.85   -41.014657     131.0542    53.129662   -307.22783    433.57965    23.507181    22.161856    1.2477774    434.82742    -4554.337 
   33600   -101065.26   -90808.756    249.06589    20724    225890.16    7.8690626   -17.971448   -216.78391    258.36255    433.37476    23.513326    22.167649    1.3502183    434.72498   -4584.6838 
   33700   -101025.69   -90769.314    249.06278    20724    226082.44    5.8696585   -173.33863    34.054547    156.89305    433.62241    23.516613    22.170748    1.2263971     434.8488   -4618.1227 
   33800   -100997.51   -90794.385    247.76962    20724    225921.68    72.689983   -4.8848885    88.535657    134.41918    433.42108     23.51371    22.168011    1.3270596    434.74814   -4602.0296 
   33900    -100905.1   -90762.873    246.29089    20724    225793.38   -52.600099    -164.9872     61.47475   -54.287848    433.41525     23.50719    22.161864    1.3299755    434.74522   -4634.0213 
   34000   -100840.78   -90722.466    245.71018    20724    226010.52    107.68468    125.31044   -23.334609     221.0782     433.4621     23.51722     22.17132    1.3065491    434.76865   -4675.3848 
   34100   -100909.68    -90742.23    246.90332    20724    225844.86    12.822189    93.044517   -5.7916481   -48.786303    433.25803    23.514135    22.168412    1.4085831    434.66662   -4656.9768 
   34200   -100980.19   -90731.312    248.88068    20724     226188.6    1.7279817   -161.82827   -70.059205    237.07142    433.51187    23.525132     22.17878     1.281666    434.79353   -4659.8317 
   34300   -100920.39   -90706.226    248.03756    20724    226024.83    50.384883   -86.969382     175.4041     62.71993    433.40777    23.519438    22.173411    1.3337128    434.74149   -4693.1284 
   34400   -100919.44   -90659.776    249.14252    20724    226044.17    -16.22755   0.49505412   -107.49417    58.316463    433.69173    23.512743    22.167099    1.1917333    434.88347   -4737.8199 
   34500    -100993.7   -90650.296    251.17602    20724     226083.1   -61.133018   -193.46076   -17.576048     27.63775    433.70557    23.514393    22.168654    1.1848144    434.89039    -4744.665 
   34600   -100955.06   -90688.589    249.30788    20724    226162.01   -66.456413   -100.73099   -210.27333    111.63508    433.75984    23.517025    22.171136    1.1576805    434.91752   -4704.4199 
   34700   -100946.91   -90667.015    249.63393    20724    226248.74   -18.366839    74.691551    104.45903    -234.2511    433.93781    23.516709    22.170839    1.0686967     435.0065   -4727.1469 
   34800   -100859.08   -90641.981    248.10904    20724     226025.8    32.342501    168.29102   -250.22085    178.95734    433.92773    23.505393     22.16017    1.0737368    435.00146   -4762.0576 
   34900    -100857.1   -90613.616    248.74969    20724    226319.69   -9.2984981    38.038079    127.43318   -193.36676     434.0653    23.516942    22.171058    1.0049477    435.07025   -4781.1942 
   35000   -100838.35   -90589.893    248.87048    20724    226180.81   -48.488248   -50.587963    153.18092   -248.05771    434.05461    23.510015    22.164527    1.0102925    435.06491    -4807.108 
   35100   -100901.56    -90633.73    249.34084    20724     226169.7   -13.253464     148.9336    4.1549053   -192.84889    434.22863    23.504726    22.159541   0.92328284    435.15192    -4765.127 
   35200   -100897.38   -90609.999    249.81569    20724    226245.28   -16.011828   -118.94378    -184.6915    255.59979    434.14016    23.511048    22.165502   0.96752074    435.10768   -4788.5489 
   35300   -100857.63   -90585.311    249.44997    20724    226456.19    17.378219    95.522678    162.61124   -205.99926    434.22983    23.519576    22.173541   0.92268498    435.15252   -4809.4077 
   35400   -100806.44   -90616.889    247.44006    20724    226289.28    5.3052833    18.814099   -16.436899     13.53865    433.92054    23.519284    22.173266    1.0773278    434.99787   -4783.6274 
   35500   -100794.22   -90609.086    247.33261    20724    226315.13   -2.6561818   -180.24314    78.010506    94.264088    434.15315    23.514326    22.168592   0.96102716    435.11417   -4793.1846 
   35600   -100919.51   -90607.516    250.41327    20724    226391.23   -67.783882   -7.7645038   -58.446362   -137.14078    434.04486    23.521213    22.175084    1.0151717    435.06003   -4789.8809 
   35700   -100908.22    -90627.43    249.65555    20724    226475.37   -26.958541   -138.86437   -19.015482    77.004231    434.20758    23.521175    22.175049   0.93381177    435.14139   -4770.7715 
   35800   -100789.71   -90572.001    248.12383    20724    226325.88    30.934677    221.46809    32.212575   -160.87663    434.27319    23.511634    22.166054   0.90100707    435.17419   -4833.2066 
   35900   -100831.06   -90564.711    249.30483    20724    226365.19    8.8485481       14.915    98.777933   -87.147288    434.50118    23.507506    22.162162   0.78700875    435.28819   -4838.8313 
   36000    -100845.3   -90530.165    250.48958    20724    226338.13    4.4766154    3.4626276    90.283644   -80.316426    433.98683    23.520026    22.173966    1.0441867    435.03101   -4875.1568 
[...]
  491300   -93383.154   -80521.462    312.32943    20724    221291.73   -149.38762    16.116704   -477.89873    13.619175    421.33431    23.602956    22.252149    7.3704439    428.70476    -22434.23 
  491400   -93329.619   -80544.197    310.47732    20724    220922.18   -57.805857   -223.75802   -245.11072    295.45117    421.24295    23.585797    22.235972    7.4161261    428.65907   -22431.153 
  491500    -93313.59   -80571.608    309.42244    20724    220706.28     104.2793    59.528475   -49.705179     303.0146    420.81245    23.586325     22.23647    7.6313742    428.44383   -22420.256 
  491600   -93289.283   -80567.763    308.92553    20724    221242.25    107.09701    411.31435    327.04588    -417.0692    421.32154    23.600674    22.249998    7.3768289    428.69837   -22407.116 
  491700     -93406.8    -80569.66    311.73324    20724     221171.6   -75.419813    119.11991   -205.83765    -139.5417    421.41615    23.594257    22.243948    7.3295247    428.74568   -22400.699 
  491800   -93383.968    -80571.25    311.14015    20724     221208.2    28.030717    219.47041    -375.6739    240.29564    421.55263    23.592389    22.242187    7.2612848    428.81392   -22405.544 
  491900   -93378.933   -80582.807    310.73724    20724    220984.57    106.06674    116.41064    337.68876   -135.89919    421.70424    23.576222    22.226945    7.1854777    428.88972   -22407.658 
  492000   -93401.906   -80518.199    312.86405    20724    221030.24   -105.98793    64.833024   -187.77945   -195.01736    421.94544    23.571917    22.222887    7.0648786    429.01032    -22463.12 
  492100   -93266.042   -80557.399    308.61283    20724    220923.63    72.540561    135.13661    46.635131     35.84994    422.10661    23.561733    22.213285    6.9842948    429.09091   -22437.661 
  492200   -93355.549   -80537.514    311.26928    20724    220712.44     65.40071    159.89623   -169.41082    205.71672    421.99516    23.553578    22.205597    7.0400181    429.03518   -22469.005 
  492300   -93421.527    -80561.19    312.29652    20724    220571.86    115.93739   -52.454158    427.67705   -27.410733    422.42278    23.534155    22.187286    6.8262103    429.24899   -22455.502 
  492400    -93426.72   -80560.654    312.43565    20724    221028.08    64.580218   -140.69336    49.909765    284.52425    422.64084    23.552402    22.204489    6.7171796    429.35802   -22439.624 
  492500   -93205.752    -80536.51    307.65602    20724    221033.93    134.56152    252.86659   -198.60828    349.42626    422.15578    23.566241    22.217536    6.9597097    429.11549   -22467.048 
  492600    -93310.81   -80522.319    310.55186    20724    221090.62    9.0294259    39.434904    124.16642   -136.51305    422.05705     23.57202    22.222983    7.0090749    429.06613   -22476.036 
  492700   -93344.654   -80498.068    311.96262    20724    221059.01    84.306717   -8.1960466   -249.75645    510.87265     422.1783    23.566949    22.218203     6.948448    429.12675    -22504.61 
  492800   -93406.881   -80513.805    313.09156    20724    220830.83   -89.639543     -31.1628   -134.37392   -103.38191    422.09286    23.557167    22.208981    6.9911695    429.08403   -22492.307 
  492900    -93316.01   -80517.221    310.80192    20724     220927.5    9.5696687   -98.588199    139.69512   -12.397915    422.08535    23.562532    22.214039    6.9949247    429.08028    -22489.27 
  493000   -93371.533    -80509.26    312.34354    20724    220926.77    75.967454    74.703021    23.050888    130.14845     422.3044    23.556382    22.208241    6.8854007     429.1898   -22501.361 
  493100   -93325.711   -80497.012    311.52825    20724    221251.54    6.7337993   -75.556805   -264.04705    359.80525    422.46814    23.569121    22.220251    6.8035312    429.27167   -22499.059 
  493200    -93244.97   -80524.316     308.9045    20724    220998.82    -3.235594   -376.31886    205.76858     160.8435    422.06326    23.566952    22.218206    7.0059676    429.06923   -22484.346 
  493300   -93315.014   -80511.126    310.92573    20724    221115.01    30.286449    203.25617    104.97456   -217.37138    422.39803    23.563803    22.215237    6.8385867    429.23661   -22498.151 
  493400   -93233.975   -80493.879    309.37662    20724    221024.94    84.939804    218.71724    212.95569   -176.85352     422.3516    23.560298    22.211933    6.8618016     429.2134   -22521.994 
  493500   -93470.047   -80477.939    315.49641    20724    221252.03   -74.140445    47.883319   -123.77711   -146.52754    422.62168    23.564865    22.216239     6.726762    429.34844   -22523.966 
  493600   -93275.998   -80486.711    310.57117    20724    221030.91    74.123601    63.117241    258.29476     -99.0412    422.47543    23.557163    22.208977    6.7998854    429.27531   -22531.095 
  493700   -93356.416   -80510.933    311.93582    20724    221077.59   -10.305955   -14.458756    32.302085   -48.761192    422.54247    23.557782     22.20956    6.7663658    429.30883   -22503.197 
  493800   -93272.935   -80514.762    309.81561    20724    221107.57     30.24142    20.152541    359.30447   -288.73275    422.44856    23.561997    22.213535    6.8133181    429.26188   -22502.397 
  493900   -93267.193   -80505.113    309.91048    20724    221143.42   -133.15591    88.263456   -221.27171   -266.45947    422.37544    23.565947    22.217258    6.8498804    429.22532   -22505.445 
  494000   -93444.612   -80538.189    313.41566    20724       221074   -61.684961    55.148336   -220.90003   -19.303185    422.43169    23.560679    22.212292    6.8217548    429.25345   -22479.193 
  494100    -93284.29   -80515.053    310.08429    20724    220908.95    20.525212   -36.527545    53.500893    44.602287    422.17239    23.559114    22.210817    6.9514037     429.1238   -22513.641 
  494200   -93320.601   -80530.786      310.584    20724    220911.08   -11.022029    -105.2499   -121.24159     193.4254    421.99062    23.564301    22.215707      7.04229    429.03291   -22498.328 
  494300   -93206.546   -80511.999    308.27054    20724    220668.48    54.146816    91.075489    37.798295    33.566664    421.77443    23.557394    22.209195    7.1503833    428.92482   -22529.348 
  494400   -93309.054   -80548.796    309.86624    20724    220776.28    41.675619   -49.746993    201.17328   -26.399426     422.3992    23.545715    22.198184    6.8379998     429.2372   -22492.098 
  494500   -93525.211   -80564.565    314.73239    20724    220518.63   -51.709511   -186.99954     267.6291   -235.75809    422.02481    23.542407    22.195066    7.0251954       429.05   -22486.645 
  494600   -93223.641   -80532.035     308.1991    20724    220596.47   -64.623835    60.192083    -140.8065   -113.25709     421.8768    23.550692    22.202876    7.0991984      428.976   -22514.681 
  494700   -93239.189    -80488.07     309.6443    20724    220916.64   -12.261552   -113.79583   -189.09059    266.10176    422.20502    23.558614    22.210345     6.935092    429.14011   -22548.728 
  494800   -93394.075   -80527.072    312.45839    20724    220818.42   -85.174612   -188.08763    93.425604   -160.86182    421.99913    23.559121    22.210823     7.038034    429.03717   -22514.675 
  494900   -93421.854   -80538.831    312.84743    20724    220563.67   -97.230453   -235.67095    272.41829    -328.4387    421.77598    23.551756    22.203879     7.149611    428.92559    -22513.92 
  495000   -93454.084   -80547.002    313.43168    20724    220771.65   -184.43164    -120.5677   -444.66209     11.93487    421.89526    23.559526    22.211205     7.089971    428.98523   -22495.302 
  495100   -93202.282   -80507.821    308.26846    20724    220773.88    99.833633    224.66354   -131.11332    205.95068    422.15638    23.552357    22.204447    6.9594102    429.11579    -22547.61 
  495200   -93256.942   -80565.751    308.18905    20724    220338.02   -11.401746     137.1051   -69.903255   -101.40708    421.95279    23.534772    22.187868    7.0612061    429.01399   -22500.432 
  495300   -93335.398    -80494.36    311.82788    20724    221141.72     8.345491    2.6643375    121.64479   -99.272652    422.25498    23.569218    22.220342    6.9101106    429.16509   -22548.376 
  495400   -93295.472   -80491.045    310.93883    20724    220901.91   -23.557138   -104.44686    165.70836   -131.93292    421.94012    23.565222    22.216575    7.0675381    429.00766   -22561.422 
  495500   -93293.997   -80487.002     311.0012    20724    220925.26   -9.2817993    -27.39374   -9.1032024    8.6515443    421.96298    23.565829    22.217147    7.0561113    429.01909   -22563.602 
  495600   -93212.827   -80459.597    309.69556    20724    220769.51   -92.338364   -199.26941   -77.613064  -0.13261418     421.9648     23.55747    22.209267       7.0552       429.02   -22595.237 
  495700   -93377.953   -80454.035    313.84049    20724    220916.61   -35.705654    102.72375   -228.60089    18.760173    422.44105     23.55203    22.204137    6.8170731    429.25813   -22603.201 
  495800   -93147.229   -80448.979    308.36047    20724    220682.76   -36.660235   -71.007466    392.08477   -431.05801    421.84877     23.55608    22.207956    7.1132146    428.96199    -22616.27 
  495900   -93244.537   -80475.178    310.08724    20724    220577.68    -9.707204   -207.95726    16.156483    162.67917    421.77272    23.552594     22.20467    7.1512407    428.92396   -22597.482 
  496000   -93171.954   -80504.542    307.61158    20724    220741.73    81.448383    32.638167    277.14478   -65.437801    421.66494    23.564362    22.215764    7.2051295    428.87007   -22566.446 
  496100   -93401.961   -80466.924    314.11052    20724    221122.09    47.222851    116.25454   -184.19562    209.60962    422.27411    23.567638    22.218852    6.9005466    429.17465   -22594.592 
  496200   -93177.435   -80453.205    308.99134    20724    220967.73   -108.46779   -104.16813   -312.46694    91.231692    422.09928    23.564289    22.215695    6.9879623    429.08724   -22606.228 
  496300   -93247.891   -80446.168    310.87315    20724    220898.96    21.980107    -70.29476    201.37505   -65.139967    421.73562    23.570778    22.221813    7.1697916    428.90541   -22623.418 
  496400   -93294.099   -80432.178    312.33501    20724     220932.9   -53.367466   -113.95536    29.325529   -75.472571    421.76881    23.571661    22.222645    7.1531933    428.92201   -22636.461 
  496500   -93226.083   -80407.904    311.27278    20724    221190.12    88.118566     31.39678   -109.72694    342.68586    422.21951    23.572787    22.223707    6.9278442    429.14736   -22659.044 
  496600   -93199.072   -80394.844    310.93401    20724    221150.75   -35.873491    63.503984   -308.48093    137.35647    422.02367    23.576157    22.226884    7.0257674    429.04943   -22669.988 
  496700   -93229.609   -80408.391    311.34656    20724    220589.81   -74.681997    -282.0015   -278.11491    336.07042    421.33368     23.56551    22.216847    7.3707599    428.70444   -22674.908 
  496800   -93151.934   -80382.649    310.08546    20724    221212.76     74.87985    281.39402    84.167975   -140.92245    421.51074    23.593805    22.243522    7.2822299    428.79297   -22686.796 
  496900   -93151.729   -80415.977    309.27113    20724    220973.85     127.0175    444.85668    58.196745   -122.00094    421.34292    23.585756    22.235934    7.3661413    428.70906   -22667.538 
  497000    -93179.15   -80414.206    309.98005    20724    221038.82   -4.9949876    83.762097    25.432929   -124.17999    421.54644    23.583528    22.233834    7.2643793    428.81082   -22661.404 
  497100   -93183.473   -80412.619    310.12355    20724    220809.15    28.541324   -83.355043   -76.240639    245.21965    421.61706    23.569299    22.220418    7.2290706    428.84613    -22675.43 
  497200   -93181.914   -80431.814    309.61957    20724    220737.33    161.07402     303.0426    -199.2907    379.47016    421.43993    23.570417    22.221473    7.3176367    428.75756   -22669.075 
  497300   -93269.801   -80425.141    311.91583    20724    220764.74    30.071461    281.58824    140.60493   -331.97879    421.81656    23.561354    22.212929      7.12932    428.94588   -22671.709 
  497400    -93165.64   -80371.853    310.68045    20724    221287.89   -90.146576   -274.01862    73.908308    -70.32942    422.10096    23.581307    22.231739    6.9871208    429.08808   -22700.474 
  497500   -93305.944   -80384.524    313.77985    20724    221424.44    111.21203   -235.03483     183.9404    384.73053    422.24686    23.584506    22.234755     6.914168    429.16103   -22696.263 
  497600   -93212.768   -80400.002    311.14132    20724    221278.52   -55.708445    61.912925    48.352636    -277.3909    421.84807    23.587875    22.237931    7.1135646    428.96164   -22678.428 
  497700   -93226.715   -80373.375    312.12662    20724    221090.53   -62.084365    78.826868   -158.76308   -106.31688    421.48796    23.587923    22.237977    7.2936209    428.78158   -22714.951 
  497800   -93279.513   -80396.413     312.8493    20724    220989.79   -69.140979   -20.473453   -307.51149      120.562    421.73496    23.575642    22.226398    7.1701185    428.90508   -22698.307 
  497900   -93264.096   -80384.796    312.75702    20724    221188.71    -28.73556    429.62896   -239.49197   -276.34367    422.11484    23.575634    22.226391    6.9801796    429.09502   -22705.588 
  498000   -93238.278   -80388.216    312.04703    20724    221024.47    -88.08025   -155.86516   -176.13005    67.754459    422.03352     23.56915    22.220278    7.0208398    429.05436   -22705.737 
  498100   -93215.819   -80394.635    311.34575    20724    220695.47   -30.196457    -148.5723    185.77083    -127.7879       421.39    23.569578    22.220682    7.3425991     428.7326   -22716.903 
  498200    -93226.33   -80404.582    311.35945    20724    220988.18   -22.782068   -5.9709065    108.53921   -170.91451    421.81486    23.573323    22.224212    7.1301702    428.94503   -22699.707 
  498300   -93370.575   -80402.985    314.90104    20724       220839   -93.588528   -237.54461   -141.17027    97.949295    421.40126    23.576926    22.227609    7.3369675    428.73823   -22707.272 
  498400    -93367.59   -80431.203    314.14331    20724    220393.46   -92.783285   -175.63231   -65.947851    -36.76969    421.40302    23.553082     22.20513    7.3360897    428.73911   -22697.946 
  498500    -93300.35   -80399.922    313.27009    20724    220755.91    -1.119258   -124.97751   -62.387226    184.00696    421.56944    23.567788    22.218994    7.2528793    428.82232   -22721.646 
  498600   -93270.611   -80379.396    313.04635    20724    220769.44   -36.714854   -9.2114684    -55.50587   -45.427223    421.43623    23.572235    22.223187    7.3194869    428.75571   -22739.184 
  498700   -93174.949   -80359.799    311.19922    20724    220732.24    48.947058    39.481462    249.67789   -142.31818    421.30467    23.573928    22.224783    7.3852657    428.68993   -22765.775 
  498800   -93261.779   -80389.358    312.58998    20724    220745.78   -25.085262   -304.60722   -30.447283    259.79871    421.32097    23.574196    22.225035    7.3771142    428.69809   -22736.209 
  498900   -93183.247   -80344.007    311.78422    20724    220998.58   -4.2137455   -131.79528    172.04493   -52.890889    421.25944    23.589413    22.239382    7.4078811    428.66732   -22773.526 
  499000   -93178.399   -80376.378    310.88041    20724    220781.78    85.174717    277.23661   -138.43318    116.72072    421.43731    23.572863    22.223779    7.3189443    428.75626   -22758.115 
  499100   -93159.467   -80350.513    311.04877    20724    221077.36     91.17029    143.83264    111.26544    18.412785    422.02356    23.572248    22.223199    7.0258201    429.04938   -22772.545 
  499200   -93157.761   -80371.447    310.49898    20724    221245.84   -109.59941   -165.70009   -200.99375    37.895621    422.36023    23.571828    22.222803    6.8574853    429.21771   -22738.894 
  499300   -93330.991   -80339.721    315.47605    20724    221056.91    -79.57331    -148.3372    124.41762   -214.80035    422.19851    23.566274    22.217567     6.938346    429.13685   -22780.576 
  499400   -93216.934   -80392.325    311.42893    20724    220735.34    70.410976   -174.74882    167.88186    218.09989    421.88602    23.557846    22.209621     7.094589    428.98061   -22749.853 
  499500   -93166.768   -80375.365    310.62257    20724    221043.34    62.807767   -154.87089    141.80112    201.49308    421.85046    23.575269    22.226047    7.1123678    428.96283   -22756.494 
  499600   -93270.205   -80393.242    312.70026    20724    220909.27    2.6073057    103.11684   -95.624205   0.32928503    421.57021    23.575952    22.226691    7.2524956     428.8227   -22740.926 
  499700   -93258.958   -80418.263    311.81955    20724    221065.93   -21.395343     53.26532   -31.938534   -85.512814    421.84552    23.576612    22.227313    7.1148415    428.96036   -22711.248 
  499800   -93235.574    -80399.78    311.70054    20724    221141.57     170.2861    369.91878   -55.054699    195.99422    421.98937    23.576626    22.227326    7.0429147    429.03229   -22737.231 
  499900   -93120.653   -80379.896     309.3927    20724    221123.47    65.444014    198.14334    17.608425   -19.419723    422.05551    23.573814    22.224675    7.0098471    429.06535   -22752.864 
  500000   -93214.042   -80399.143    311.19312    20724    221150.62   -24.693075   -94.771257    246.06287   -225.37084    421.76386    23.583411    22.233723    7.1556695    428.91953   -22730.279 
Loop time of 52228.6 on 32 procs for 500000 steps with 20724 atoms

Performance: 1.654 ns/day, 14.508 hours/ns, 9.573 timesteps/s
97.3% CPU use with 32 MPI tasks x no OpenMP threads

MPI task timing breakdown:
Section |  min time  |  avg time  |  max time  |%varavg| %total
---------------------------------------------------------------
Pair    | 6464.7     | 9241.9     | 13073      |2495.2 | 17.70
Bond    | 0.34341    | 0.4592     | 0.56563    |   7.7 |  0.00
Kspace  | 8051.5     | 11897      | 14690      |2212.2 | 22.78
Neigh   | 8524.3     | 10545      | 12418      |1369.1 | 20.19
Comm    | 451.32     | 3809.9     | 7664.6     |4422.9 |  7.29
Output  | 4.0555     | 45.781     | 74.802     | 370.3 |  0.09
Modify  | 13033      | 16649      | 21859      |2424.2 | 31.88
Other   |            | 39.14      |            |       |  0.07

Nlocal:    647.625 ave 705 max 600 min
Histogram: 2 4 4 6 4 3 2 3 1 3
Nghost:    7325.62 ave 7822 max 6774 min
Histogram: 4 3 5 1 3 1 3 1 7 4
Neighs:    238089 ave 277971 max 208926 min
Histogram: 2 7 9 0 1 3 4 2 1 3
FullNghs:  476178 ave 556413 max 422977 min
Histogram: 3 7 8 0 2 2 4 2 1 3

Total # of neighbors = 15237690
Ave neighs/atom = 735.268
Ave special neighs/atom = 2
Neighbor list builds = 500000
Dangerous builds not checked
write_data production.R1
PPPM initialization ...
  extracting TIP4P info from pair style
WARNING: Using 12-bit tables for long-range coulomb (../kspace.cpp:316)
  G vector (1/distance) = 0.345922
  grid = 400 48 48
  stencil order = 5
  estimated absolute RMS force accuracy = 0.000401364
  estimated relative force accuracy = 1.2087e-06
  using double precision FFTs
  3d grid and FFT values/proc = 64980 38400
write_restart restartproduction.R1
PPPM initialization ...
  extracting TIP4P info from pair style
WARNING: Using 12-bit tables for long-range coulomb (../kspace.cpp:316)
  G vector (1/distance) = 0.345922
  grid = 400 48 48
  stencil order = 5
  estimated absolute RMS force accuracy = 0.000401364
  estimated relative force accuracy = 1.2087e-06
  using double precision FFTs
  3d grid and FFT values/proc = 64980 38400
Total wall time: 14:30:29
