LAMMPS (30 Jul 2016)
# Sets up LAMMPS simulation for transient melting of ice: TIP4P/Ice
# Ensure cold thermostats do not move
# Thinbox: 16x1x1
# Defects
# Order param l=2

#### setting MD parameters ####
units real
boundary p p p
atom_style full

# read ice box in restart file
### read the equilibrated NPT restart file

read_restart restart.state
  orthogonal box = (0.431323 0.0232748 0.0219427) to (435.644 23.5079 22.1626)
  32 by 1 by 1 MPI processor grid
  20736 atoms
  13824 bonds
  6912 angles
  2 = max # of 1-2 neighbors
  1 = max # of 1-3 neighbors
  1 = max # of 1-4 neighbors
  2 = max # of special neighbors


#### force field definition ####
pair_style      lj/cut/tip4p/long 2 1 1 1 0.1577 10.0
pair_modify	tail yes

kspace_style	pppm/tip4p 1.0e-6

bond_style	harmonic
angle_style	harmonic
dihedral_style	none
improper_style	none

bond_coeff	1 450.0 0.9572
angle_coeff	1 55.0 104.52


# reset pair coeff
pair_coeff	* * 0.0 0.0

#OO
pair_coeff	2 2 0.21085 3.1668
#OH
pair_coeff	* 1 0.0000 0.0000

neighbor        2.0 bin
neigh_modify    every 1 delay 1 check no

timestep	2.0
fix		constraints all shake 0.000001 20 0 b 1 a 1
  0 = # of size 2 clusters
  0 = # of size 3 clusters
  0 = # of size 4 clusters
  6912 = # of frozen angles

group water type 1 2
20736 atoms in group water

#*********** SIMULATION PARAMETER TO ADJUST ****************
#Box dimensions
variable lx equal lx
variable ly equal ly
variable lz equal lz

### Temperature of the hot and cold regions ####
variable thi equal 375
variable tlo equal 215
variable runpressure equal 0.986923


# Configuration equilibrated in density and temperature

# Define dx here

variable lx equal lx
variable ly equal ly
variable lz equal lz

variable xlo equal xlo
variable xhi equal xhi

variable boxcentre equal ${xlo}+(${xhi}-${xlo})/2
variable boxcentre equal 0.431323115918321+(${xhi}-${xlo})/2
variable boxcentre equal 0.431323115918321+(435.643876884078-${xlo})/2
variable boxcentre equal 0.431323115918321+(435.643876884078-0.431323115918321)/2

variable dx equal 2.0

#### ADD IN DEFECTS AT THE CENTRE OF THE HOT THERMOSTAT #####
variable y1 equal ${ly}/2.0
variable y1 equal 23.4846504576032/2.0
variable z1 equal ${lz}/2.0
variable z1 equal 22.1406145065571/2.0

region kill1 sphere ${boxcentre} ${y1} ${z1} 3
region kill1 sphere 218.037599999998 ${y1} ${z1} 3
region kill1 sphere 218.037599999998 11.7423252288016 ${z1} 3
region kill1 sphere 218.037599999998 11.7423252288016 11.0703072532785 3
delete_atoms region kill1 compress no bond yes mol yes
Deleted 12 atoms, new total = 20724
Deleted 8 bonds, new total = 13816
Deleted 4 angles, new total = 6908
############


variable thip equal ${thi}*2.0/3.0
variable thip equal 375*2.0/3.0
variable tlop equal ${tlo}*2.0/3.0
variable tlop equal 215*2.0/3.0
variable hbl equal ${boxcentre}-${dx}
variable hbl equal 218.037599999998-${dx}
variable hbl equal 218.037599999998-2
variable hbh equal ${boxcentre}+${dx}
variable hbh equal 218.037599999998+${dx}
variable hbh equal 218.037599999998+2

#***************************************************
## EQUILIBRATION PERIOD - to reach the steady state ###
#run 0

#reset the timestep to start your production run
reset_timestep 0

# define a group to perform averages
#group s1 type 1
###*** SYSTEM THERMOSTATTING: HOT and COLD regions ***###

fix NVE all nve
fix PRESS all press/berendsen aniso ${runpressure} ${runpressure} 500000 couple yz
fix PRESS all press/berendsen aniso 0.986923 ${runpressure} 500000 couple yz
fix PRESS all press/berendsen aniso 0.986923 0.986923 500000 couple yz


### Apply THERMOSTATS ###

#set up the "hot region" in the middle of the box
region hot block ${hbl} ${hbh} 0 ${ly} 0 ${lz} units box
region hot block 216.037599999998 ${hbh} 0 ${ly} 0 ${lz} units box
region hot block 216.037599999998 220.037599999998 0 ${ly} 0 ${lz} units box
region hot block 216.037599999998 220.037599999998 0 23.4846504576032 0 ${lz} units box
region hot block 216.037599999998 220.037599999998 0 23.4846504576032 0 22.1406145065571 units box


#set up the "cold region" at the left end of the box
#region cold block ${cbl} ${cbh} 0 ${ly} 0 ${lz} units box

#set up the "cold region" at the right end of the box
#region cold2 block ${h2bl} ${xhi} 0 ${ly} 0 ${lz} units box


#Cold regions  unification
#region cold union 2 cold1 cold2 units box

#Create group of cold molecules
####group cool_ice region cold
####group cool_ice include molecule

####compute cold_temp cool_ice temp
####fix cold_rescale water temp/rescale 1 ${tlo} ${tlo} 0.0001 1.0
####fix_modify cold_rescale temp cold_temp

#this calculates the temperature using only the atoms in the "hot region"
#compute hot_temp all temp/region hot

# calculate the temperature using only WATER in the "hot region"
compute hot_temp water temp/region hot

#this calculates the temperature using only WATER in the "cold region"
#compute cold_temp water temp/region cold


#set up a basic velocity rescale for the hot region WATER with thip
fix hot_rescale water temp/rescale 1 ${thip} ${thip} 1.0 1.0
fix hot_rescale water temp/rescale 1 250 ${thip} 1.0 1.0
fix hot_rescale water temp/rescale 1 250 250 1.0 1.0
#change the thermostat to only act on the "hot region"
#this is done by passing it the "hot temp" compute that we defined above
fix_modify hot_rescale temp hot_temp

#set up a basic velocity rescale for the cold region
#fix cold_rescale water temp/rescale 1 ${tlop} ${tlop} 1.0 1.0
#change the thermostat to only act on the "cold region"
#this is done by passing it the "cold temp" compute that we defined above
#fix_modify cold_rescale temp cold_temp

### Ensure MOMENTUM CONSERVATION ###

#ensure that linear momentum is conserved despite the "thermostatting" by velocity rescaling
fix cons_mom all momentum 1 linear 1 1 1


thermo 100
thermo_style custom step pe etotal temp atoms vol press pxx pyy pzz lx ly lz xlo xhi  f_hot_rescale

group ox type 2
6908 atoms in group ox
group hy type 1
13816 atoms in group hy
compute KE all ke/atom
variable TEMP atom c_KE*4186.8/(1.3806488*6.02214129)

compute cc1 all chunk/atom bin/1d x center 2 units box
#fix TPROFILE all ave/chunk 1 500 500 cc1 v_TEMP density/number file temp.dat
fix TPROFILEox ox ave/chunk 1 500 500 cc1 v_TEMP density/number file temp-ox.dat
fix TPROFILEhy hy ave/chunk 1 500 500 cc1 v_TEMP density/number file temp-hy.dat

compute orderparam ox orientorder/atom degrees 1 2 nnn 4 cutoff 3.5
compute cc2 ox chunk/atom bin/1d x center 2 units box
#fix ORDERPARAM all ave/chunk 1 500 500 cc2 c_orderparam[1] file order-param.dat
fix ORDERPARAM all ave/chunk 1 500 500 cc2 c_orderparam[1] file order-param.dat

restart 50000 config.restart

run 500000
PPPM initialization ...
  extracting TIP4P info from pair style
WARNING: Using 12-bit tables for long-range coulomb (../kspace.cpp:316)
  G vector (1/distance) = 0.3456
  grid = 405 48 48
  stencil order = 5
  estimated absolute RMS force accuracy = 0.000405972
  estimated relative force accuracy = 1.22257e-06
  using double precision FFTs
  3d grid and FFT values/proc = 67260 38880
Neighbor list info ...
  2 neighbor list requests
  update every 1 steps, delay 1 steps, check no
  max neighbors/atom: 2000, page size: 100000
  master list distance cutoff = 12.3154
  ghost atom cutoff = 12.3154
  binsize = 6.1577 -> bins = 71 4 4
Memory usage per processor = 12.7766 Mbytes
Step PotEng TotEng Temp Atoms Volume Press Pxx Pyy Pzz Lx Ly Lz Xlo Xhi hot_resc 
       0   -103811.06   -94974.841    214.57596    20724    226295.12    14.129854   -54.168392    64.057367    32.500588    435.21255     23.48465    22.140615   0.43132312    435.64388            0 
     100   -103706.39    -94717.54    218.28248    20724    226353.18   -23.026295    9.3781712   -40.350948   -38.106108    435.04464    23.492195    22.147728    0.5152791    435.55992   -254.99165 
     200   -103648.92   -94659.443    218.29784    20724    226318.05    19.504427   -44.989972    235.64735    -132.1441    435.33795    23.482458    22.138547   0.36862625    435.70657   -317.67465 
     300   -103573.73    -94562.93    218.81557    20724    226357.65    9.8297852   -87.799021   -82.838725     200.1271    435.21977      23.4877     22.14349    0.4277152    435.64748    -414.1312 
     400   -103620.89   -94598.848    219.08866    20724    226404.55    79.360144     151.3785    190.36006   -103.65814    435.23922    23.489608    22.145289    0.4179899    435.65721   -381.57715 
     500   -103478.39   -94544.907    216.93811    20724    226362.09    26.367879   -47.659841    294.59181   -167.82833    435.23146    23.487615    22.143409   0.42186838    435.65333   -432.35392 
     600   -103632.05   -94502.578    221.69734    20724    226333.11   -52.022179   -41.479884    4.5217182   -119.10837    435.17563    23.487618    22.143413   0.44978707    435.62541   -473.05934 
     700   -103473.71   -94442.615    219.30828    20724    226320.55    48.525462    214.61779   -100.37085    31.329447    435.29883    23.483642    22.139664   0.38818297    435.68702   -538.11711 
     800   -103470.46   -94419.444    219.79212    20724    226352.48     9.153743    24.820209   -55.908064    58.549084    435.31214     23.48494    22.140887   0.38152765    435.69367   -558.10797 
     900   -103421.01   -94418.148    218.62276    20724    226231.03    38.159777   -61.292474    39.569834    136.20197    435.09464    23.484506    22.140478   0.49027983    435.58492   -566.28288 
    1000   -103463.09   -94332.377    221.72757    20724    226461.98   -3.5053015     -111.855    87.964427    13.374667    435.21587    23.493218    22.148691    0.4296628    435.64554   -642.99526 
    1100   -103412.54   -94282.332    221.71527    20724    226569.42    6.7212443    101.98127   -388.81122    306.99368    435.48543    23.491516    22.147087   0.29488679    435.78031   -693.13146 
    1200   -103379.97   -94287.816    220.79102    20724    226519.47   -11.048734    52.530557   -62.733589   -22.943169    435.49851    23.488574    22.144313   0.28834523    435.78685   -689.25347 
    1300   -103313.47   -94246.125    220.18859    20724    226448.18    29.535151    46.948114    130.69676   -89.039421    435.33592    23.489263    22.144963   0.36964083    435.70556   -733.87262 
    1400   -103390.87   -94252.034    221.92467    20724    226419.66    35.630408    188.18152   -19.263473   -62.026819    435.20942    23.491197    22.146786   0.43288968    435.64231   -730.66292 
    1500    -103377.8   -94195.961    222.96912    20724    226368.72   -55.719591   -32.968362   -334.80844    200.61803    435.31813    23.485621    22.141529   0.37853547    435.69666   -786.57617 
    1600   -103341.62   -94173.781    222.62902    20724    226361.19   -15.995738   -127.26595    -11.54154    90.820275    435.23428    23.487493    22.143294   0.42045822    435.65474   -810.44675 
    1700   -103258.42   -94127.209    221.73964    20724    226427.75    82.083904   -66.210989     281.1745    31.288205    435.36966    23.487293    22.143105   0.35277168    435.72243   -859.59836 
    1800   -103263.86    -94097.52    222.59255    20724    226353.27   -19.303764    94.312751    -132.0566   -20.167446    435.29897    23.485336    22.141261   0.38811271    435.68709   -887.78717 
    1900   -103365.55   -94044.735    226.34384    20724    226408.96   -24.405865   -120.17628    215.58119    -168.6225    435.40189    23.485449    22.141367   0.33665602    435.73854   -940.49342 
    2000   -103277.11    -94017.72    224.85216    20724    226397.79   -12.111969   -106.07077    231.53311   -161.79824    435.28831    23.487933    22.143709   0.39344583    435.68175   -969.97196 
    2100   -103206.85   -93973.862     224.2112    20724     226418.6   -13.057995   -5.7477032   -18.145704   -15.280578    435.40896    23.485758    22.141659   0.33312215    435.74208   -1013.7781 
    2200   -103217.43    -93991.68     224.0353    20724    226468.13   -43.951754   -215.57301   -74.978005    158.69575    435.53875    23.484827    22.140781   0.26822562    435.80697   -995.09231 
    2300   -103258.65   -93936.725    226.37076    20724    226457.19    19.940505   -30.514852    31.259812    59.076556    435.19247    23.493601    22.149053   0.44136719    435.63383   -1053.4134 
    2400   -103210.83    -93945.68    224.99209    20724    226653.79    20.350337     5.201297   -27.418519    83.268232    435.45706    23.496655    22.151932   0.30907016    435.76613   -1040.8258 
    2500   -103341.53   -93969.172    227.59554    20724    226609.48   -57.626534   -115.77064   -73.030488    15.921523     435.6168     23.49005    22.145705   0.22920038      435.846   -1016.6065 
    2600    -103276.8   -93940.443    226.72117    20724     226769.3   -33.908566   -162.23081    49.104285    11.400825    435.62998    23.497976    22.153178   0.22260794    435.85259   -1042.9207 
    2700   -103253.22   -93951.752    225.87397    20724    226475.02   -57.923071   -15.015296    126.35186   -285.10578    435.41053    23.488642    22.144378   0.33233382    435.74287   -1038.2102 
    2800   -103144.07     -93913.3     224.1572    20724    226664.74    122.79806    19.679145    56.144353    292.57068    435.47204    23.496818    22.152086   0.30158131    435.77362   -1080.6755 
    2900   -103191.76    -93907.18    225.46385    20724     226616.2    35.248256    137.71903   -120.08453    88.110272    435.43791    23.495223    22.150582   0.31864252    435.75656   -1084.1931 
    3000   -103193.63   -93867.782    226.46598    20724    226626.19    27.321092    189.62878   -32.496771   -75.168731    435.64453    23.490168    22.145817   0.21533374    435.85987   -1125.6507 
    3100   -103161.08   -93843.202     226.2726    20724    226792.43   -11.283533    98.301512    -173.7358    41.583686    435.61318    23.499628    22.154735   0.23101209    435.84419   -1147.8372 
    3200   -103177.42    -93794.21    227.85907    20724    226709.23     -61.0938   -150.50566    87.467698   -120.24343    435.50432    23.498253    22.153439   0.28544101    435.78976   -1196.5591 
    3300   -103158.99   -93784.905    227.63741    20724    226746.52    26.343272   -128.70249    377.11333   -169.38102     435.3484    23.504394    22.159228   0.36340217     435.7118   -1209.3238 
    3400   -103102.93    -93774.65     226.5251    20724    226663.51   -17.887484   -20.096653    109.02479   -142.59059    435.38621     23.49907    22.154209   0.34449274    435.73071   -1219.4459 
    3500    -103220.6   -93785.258     229.1249    20724    226722.88   -22.318857    106.20447   -130.48205   -42.678984    435.60476    23.496251    22.151552   0.23522027    435.83998   -1210.0364 
    3600   -103157.18   -93750.469    228.42974    20724    226719.63   -90.838832    -124.9994   -408.87868    261.36158    435.56985    23.497025     22.15228   0.25267508    435.82252   -1243.2935 
    3700   -103128.21   -93728.381    228.26271    20724    226814.21    21.268114    -179.7602   -19.273552    262.83809    435.53841    23.502773      22.1577   0.26839624     435.8068   -1267.4393 
    3800   -103047.31   -93718.461    226.53883    20724    226615.39     2.901443   -45.308844   -38.813564    92.826737    435.49295    23.493696    22.149143   0.29112528    435.78407   -1283.4733 
    3900   -103089.75    -93761.87    226.51536    20724    226566.98    -9.188531   -109.51231   -52.567799    134.51452    435.48979    23.491272    22.146857   0.29270568    435.78249   -1242.2772 
    4000   -103187.82   -93739.584    229.43809    20724    226738.62   -8.9807789   -8.3313073    25.440201    -44.05123    435.68037    23.495028    22.150398   0.19741598    435.87778   -1260.9075 
    4100   -103040.51   -93704.524    226.71227    20724    226573.65   -37.134712     92.19563   -157.21366   -46.386106     435.5206    23.490787      22.1464   0.27730057     435.7979   -1299.9523 
    4200   -103083.22   -93702.231    227.80505    20724    226702.56    12.766741    108.95875     13.31978   -83.978311    435.57137    23.496099    22.151408   0.25191281    435.82329   -1301.1973 
    4300   -103081.44   -93649.325    229.04655    20724    226575.22   -14.437906      -14.255   -116.88018    87.821464    435.72173    23.485446    22.141365   0.17673485    435.89847   -1357.4015 
    4400   -102998.16   -93657.209    226.83283    20724    226542.89    73.965936   -21.175444   -43.294062    286.36731    435.39549    23.492567    22.148078   0.33985394    435.73535   -1355.1061 
    4500   -103012.38   -93608.882    228.35175    20724     226538.7   -30.830294   -80.898616   -111.01532    99.423052    435.20594    23.497465    22.152695   0.43462778    435.64057   -1399.1183 
    4600    -102960.4   -93618.791    226.84868    20724    226497.96    75.125667    247.81369    13.955313   -36.391999    435.27262    23.493552    22.149007   0.40129184    435.67391   -1396.0552 
    4700   -102997.25   -93599.483    228.21247    20724    226547.79    26.475934    54.896002    202.75234   -178.22054    435.23934    23.497035     22.15229   0.41793009    435.65727   -1411.5005 
    4800   -102983.85   -93550.565    229.07499    20724    226570.57    61.533837    179.12044   -114.16592    119.64699    435.29819    23.496628    22.151906   0.38850589    435.68669   -1463.1992 
    4900   -102914.14   -93541.789    227.59535    20724    226656.34   -5.9234387    2.6833096   -183.55984    163.10621    435.24995    23.502377    22.157326   0.41262413    435.66258   -1466.5593 
    5000   -102955.05   -93510.223    229.35543    20724     226517.8   -20.540169   -32.637752    110.07833   -139.06108    435.27688    23.494466    22.149869   0.39915903    435.67604   -1502.4173 
    5100   -102922.96   -93501.199    228.79513    20724    226600.67    67.609459    256.83493   -38.898823   -15.107726    435.29936    23.498157    22.153348   0.38792061    435.68728   -1514.4177 
    5200   -102979.15   -93497.147    230.25801    20724    226506.48   -110.73142     -51.6383   -143.50713   -137.04883     435.1843    23.496378    22.151671   0.44545059    435.62975   -1513.0131 
    5300   -103001.59   -93485.036    231.09709    20724     226624.1   -30.565945   -149.00175   -399.52463    456.82855    435.29791    23.499411     22.15453   0.38864603    435.68655   -1527.8811 
    5400   -102934.29   -93463.853    229.97716    20724    226458.66   -39.172148    -185.9264    194.26229   -125.85234    435.25999    23.491855    22.147407   0.40760665    435.66759    -1553.677 
    5500   -103017.23   -93443.386    232.48845    20724    226791.48   -32.897967   -139.90918    -103.1994    144.41468    435.35257    23.506611    22.161319   0.36131561    435.71388   -1567.7555 
    5600   -102960.25   -93436.921    231.26173    20724     226483.9   -4.1722962   -67.735247   -54.105406    109.32376    435.09724    23.497557    22.152782   0.48897753    435.58622   -1584.1176 
    5700   -102839.03   -93398.785    229.24401    20724    226651.77     71.61052    122.85034    103.90649   -11.925272    435.43321    23.497194     22.15244   0.32099337    435.75421   -1619.8424 
    5800   -102956.47   -93398.158    232.11127    20724    226666.42    -65.21349    -62.98865    15.402417   -148.05424    435.54881    23.494835    22.150216   0.26319374    435.81201   -1616.0796 
    5900   -102921.17   -93398.781    231.23873    20724    226745.69    18.599567   -112.09897   -111.09417    278.99185    435.39052    23.503214    22.158115   0.34233937    435.73286   -1618.6617 
    6000   -102873.41   -93362.699    230.95524    20724    226655.69    90.950611    48.201678    60.451205    164.19895    435.45559    23.496793    22.152062   0.30980633    435.76539   -1661.2843 
    6100   -102870.52   -93346.674    231.27422    20724    226757.37     70.27039    123.38001    340.86943   -253.43827    435.44868     23.50225    22.157206   0.31326064    435.76194   -1674.3563 
    6200   -102862.58   -93264.756    233.07072    20724    226676.75   -62.400443    -25.54209     181.6575   -343.31674    435.28718     23.50243    22.157377   0.39401096    435.68119   -1754.0855 
    6300   -102833.03   -93284.905    231.86389    20724    226667.69    5.2169853     124.6254    267.09999   -376.07444     435.4636    23.497199    22.152445   0.30579921     435.7694   -1737.2212 
    6400    -102811.4   -93297.849    231.02421    20724    226747.42    59.518016    177.35554    -88.30131    89.499821    435.70009    23.494953    22.150327   0.18755688    435.88764   -1724.9897 
    6500   -102863.49   -93347.096    231.09315    20724     226864.8    31.017765    46.986617   -152.89646    198.96314    435.70129       23.501    22.156029   0.18695729    435.88824   -1673.3055 
    6600   -102908.41   -93307.498    233.14553    20724    226964.03   -53.493784   -66.896784   -263.89635    170.31178    435.37588    23.514922    22.169154   0.34965861    435.72554    -1707.776 
    6700    -102753.6   -93288.841    229.83942    20724    226654.73   -36.348333    19.831402   -143.12917    14.252767    435.53328    23.494647    22.150039   0.27095752    435.80424   -1734.1603 
    6800   -102826.95   -93249.807     232.5684    20724     226973.9   -10.350142    47.540107   -139.86306    61.272526    435.72412    23.506035    22.160775   0.17554147    435.89966   -1767.5702 
    6900   -102736.24   -93233.204    230.76895    20724    226751.69    53.301902   -152.86042   -94.586253    407.35238    435.34395    23.504782    22.159594   0.36562548    435.70957   -1794.4787 
    7000   -102736.78   -93190.636    231.81562    20724    226662.29   -45.273318   -74.981429    10.163795   -71.002321    435.31362    23.500966    22.155997   0.38078785    435.69441   -1834.7737 
    7100   -102706.51   -93159.059    231.84731    20724    226773.16    25.255611   -39.325334   -118.47587    233.56804    435.24585    23.508543     22.16314   0.41467431    435.66053   -1866.4774 
    7200   -102753.27    -93162.78    232.89255    20724    226717.25   -9.3909615    30.067668   -69.399494    11.158942    435.33591    23.503214    22.158115   0.36964313    435.70556   -1865.5651 
    7300   -102683.89   -93132.058    231.95371    20724    226712.33   -15.702298   -56.158543    340.03891   -330.98726    435.35234    23.502515    22.157457   0.36142964    435.71377   -1894.4046 
    7400   -102641.48   -93123.244     231.1379    20724     226669.6    62.967955     27.67379     213.6883   -52.458222    435.39503    23.499148    22.154283   0.34008724    435.73511   -1908.0987 
    7500   -102690.43   -93079.635    233.38559    20724    226700.13   -25.551202    92.536749   -82.448954   -86.741402    435.23258    23.505116    22.159909   0.42130761    435.65389    -1949.868 
    7600   -102768.93   -93175.948    232.95311    20724     226796.9    81.577577    64.408671    116.83824    63.485822    435.25865    23.509428    22.163974   0.40827622    435.66692   -1858.0444 
    7700   -102811.57   -93152.238    234.56424    20724    226709.39   -46.188733   0.35424842   -65.966042   -72.954407    435.42175     23.50049    22.155547   0.32672577    435.74847   -1877.1289 
    7800   -102750.03   -93155.708    232.98553    20724    226853.38   -12.476006    70.156019   -178.17814    70.594104     435.3769    23.509162    22.163723   0.34914778    435.72605   -1872.5912 
    7900   -102820.89   -93124.916     235.4542    20724    226701.66     13.03681    77.024941    227.30113   -265.21564    435.42653     23.49996    22.155048   0.32433414    435.75087   -1912.0451 
    8000   -102685.68    -93105.21    232.64919    20724    226748.66   -97.241917   -134.93193   -115.41318   -41.380639    435.31765    23.505335    22.160115   0.37877601    435.69642   -1922.1135 
    8100   -102665.11   -93085.606    232.62567    20724    226863.18    95.723302    331.22695    32.464274   -76.521316    435.51785    23.505865    22.160615   0.27867646    435.79652    -1952.165 
    8200   -102688.99   -93103.058    232.78196    20724    226777.26    7.9126115   -46.763042   -174.57413      245.075    435.57083    23.499984    22.155071   0.25218451    435.82302   -1934.0801 
    8300   -102744.84   -93103.152     234.1359    20724    226962.28     64.62571    98.801601    98.521048   -3.4455191    435.75229    23.504673    22.159491   0.16145406    435.91375   -1933.6045 
    8400   -102668.79   -93096.947    232.43972    20724    226734.58   -4.3083877    37.159933   -130.02848     79.94338    435.65498    23.495503    22.150846   0.21010917    435.86509    -1943.713 
    8500   -102694.27    -93077.07    233.54127    20724    226927.62    14.860113   -17.317945   -150.54983    212.44811    435.58892    23.507286    22.161954   0.24314105    435.83206   -1958.9286 
    8600   -102697.43   -93087.675    233.36043    20724    226737.79   -15.444939   -44.876071    -27.67595    26.217204      435.625    23.496479    22.151766   0.22510179     435.8501   -1953.4892 
    8700   -102618.77   -93051.961    232.31756    20724    226994.77   -16.329194    23.329557   -109.67372    37.356577    435.73104    23.506929    22.161618   0.17207991    435.90312   -1982.1523 
    8800   -102715.03    -93039.43     234.9593    20724    227057.51    35.068867    144.10302    82.504044   -121.40047    435.98888    23.503224    22.158126  0.043162301    436.03204   -1996.7957 
    8900   -102613.34   -93081.791     231.4613    20724    226803.89   -27.373288    26.134995   -150.80085    42.545991    435.67949    23.498433    22.153608   0.19785474    435.87735    -1958.862 
    9000   -102642.53   -93014.528    233.80357    20724    226970.98   -20.156138    52.918728    96.025819   -209.41296    435.70506    23.506398    22.161117   0.18507196    435.89013    -2023.216 
    9100   -102662.93   -92988.704    234.92608    20724    227006.61   -23.641347    3.0898629   -62.673396   -11.340509    435.88829    23.503301    22.158198  0.093453244    435.98175   -2050.3213 
    9200   -102615.21    -92979.47    233.99147    20724    226951.45     48.67796   -40.068499   -111.64761    297.74999     435.7616    23.503862    22.158726   0.15680203     435.9184   -2065.0076 
    9300   -102679.56   -92959.754    236.03286    20724    226925.36   -12.393986      -125.32    26.323742    61.814301    435.52726    23.508832    22.163412   0.27396789    435.80123   -2084.1935 
    9400   -102596.77   -92970.151    233.76989    20724    226924.72   -24.346523    205.30489   -78.372578   -199.97188    435.63423    23.505913     22.16066   0.22048274    435.85472   -2073.6714 
    9500   -102518.02   -92951.132    232.31937    20724    226766.05    82.519897    85.290682    211.94617   -49.677166    435.56567    23.499543    22.154655   0.25476735    435.82043   -2100.5891 
    9600   -102535.25   -92903.928    233.88405    20724    226869.86   -43.449632    124.00247   -223.89005   -30.461311    435.41734    23.508924    22.163499   0.32893044    435.74627   -2141.8225 
    9700   -102487.76   -92890.696    233.05209    20724    226770.39    43.501985    112.20286    276.91967   -258.61657    435.59275    23.499037    22.154178   0.24122514    435.83397   -2162.6501 
    9800   -102537.62   -92915.552    233.65947    20724    226850.61    27.695915    104.22613   -60.028104    38.889716    435.48621    23.506068    22.160806    0.2944932    435.78071   -2137.4307 
    9900   -102563.12   -92854.657    235.75733    20724    226855.88   -23.069819   -56.520447   -144.92639    132.23738    435.18708    23.514418    22.168679     0.444061    435.63114   -2194.9459 
   10000   -102550.07   -92871.438     235.0329    20724    226880.96   -76.832138   -127.11258    -69.40854   -33.975291    435.72379    23.501231    22.156246   0.17570718    435.89949   -2174.9028 
   10100   -102521.62   -92837.695    235.16143    20724     226814.9    17.365311    117.53501   -97.785519    32.346441    435.31963    23.508714    22.163301   0.37778486    435.69742   -2217.5835 
   10200   -102632.36   -92852.026    237.50264    20724    226805.73   -46.484486   -17.873439    40.205553   -161.78557    435.39645    23.506165    22.160898   0.33937302    435.73583   -2203.5803 
   10300    -102478.3   -92839.961    234.05458    20724    226778.62     -11.7256   -96.093977   -307.20903    368.12621    435.31415    23.506982    22.161668   0.38052269    435.69468   -2217.2707 
   10400   -102593.91   -92844.542     236.7506    20724    226724.93   -78.128284    78.323512   -29.806948   -282.90141    435.37474    23.502563    22.157502   0.35022855    435.72497   -2211.9114 
   10500   -102479.11    -92795.05    235.16481    20724    226622.49   -1.1365966    8.9702343   -106.85362    94.473592     435.3887    23.496877    22.152141   0.34325209    435.73195   -2268.7098 
   10600   -102492.15   -92810.534    235.10541    20724    226783.11    63.760254    276.20898    17.303445   -102.23167    435.21789    23.509814    22.164338   0.42865723    435.64654     -2252.72 
   10700    -102432.2   -92773.579    234.54706    20724    226446.09    10.353641    108.97147   -116.68522    38.774674    434.91088    23.500629    22.155679   0.58215824    435.49304   -2295.4613 
   10800   -102512.94   -92768.787    236.62406    20724    226555.69    9.4660118    -37.10008    105.63865   -40.140535    435.15747    23.499655     22.15476   0.45886588    435.61633   -2299.7609 
   10900   -102448.52   -92738.541    235.79427    20724    226737.66    -23.96042    84.977073    128.38741   -285.24575     435.4489    23.501222    22.156238   0.31314988    435.76205   -2324.6464 
   11000   -102374.62   -92736.632    234.04605    20724    226642.35    23.783362    -117.2816    242.35268   -53.720991    435.41648    23.497157    22.152405   0.32935903    435.74584   -2331.8853 
   11100   -102376.93   -92736.954    234.09423    20724    226788.97    101.42415   -14.253508    19.753957    298.77199    435.38142    23.505703    22.160462   0.34689221    435.72831   -2331.8108 
   11200   -102484.43   -92762.433    236.08595    20724    226661.51    70.336973    7.0110502   -107.43296    311.43283    435.25218    23.502585    22.157522   0.41150925    435.66369   -2309.4153 
   11300   -102462.71   -92734.791    236.22993    20724    226699.03    39.440998    143.64354    70.956436   -96.276984    435.24555    23.504709    22.159525   0.41482337    435.66038   -2336.6492 
   11400   -102375.47    -92723.97     234.3741    20724    226804.29    20.549801    30.309533    113.57081   -82.230943    435.42961    23.505196    22.159984   0.32279597     435.7524   -2342.7458 
   11500   -102555.77    -92726.71    238.68585    20724    226840.65   -22.125177    128.51284   -41.560216   -153.32816    435.37623     23.50852    22.163118   0.34948332    435.72572   -2340.8681 
   11600   -102417.28   -92701.915    235.92492    20724    226712.12   -21.194973   -54.994765    53.625727   -62.215881    435.28775    23.504248    22.159091   0.39372576    435.68147   -2366.6018 
   11700   -102388.25   -92657.956    236.28748    20724    226866.65    94.193289    224.19687   -158.63724    217.02024    435.63522    23.502879    22.157799   0.21999077    435.85521   -2414.0098 
   11800   -102434.68   -92620.591    238.32227    20724    226781.85   -54.600876   -72.028576   -268.80028    177.02623    435.38325    23.505284    22.160068   0.34597731    435.72922   -2448.4423 
   11900   -102367.71   -92628.069     236.5145    20724    226753.28     84.64259    187.57602    324.79458   -258.44283    435.45865    23.501768    22.156753   0.30827459    435.76693   -2448.1056 
   12000   -102354.53    -92638.12    235.95029    20724    226762.73    38.147056 -0.013973198     161.3197   -46.864556    435.72436    23.495091    22.150457   0.17541796    435.89978   -2436.4366 
   12100   -102273.47   -92604.776    234.79161    20724     226540.4     62.24783   -19.214708    236.46427   -30.506069    435.33752    23.494002    22.149431    0.3688389    435.70636   -2477.4884 
   12200   -102382.64   -92619.175    237.09294    20724    226620.76   -19.806332    23.479268   -42.894645   -40.003619    435.39493    23.496619    22.151898   0.34013334    435.73507   -2458.5358 
   12300   -102306.76   -92551.964    236.88261    20724    226586.23    31.588012    84.367313   -142.74357    153.14029    435.29482    23.497531    22.152758   0.39019187    435.68501   -2530.1019 
   12400   -102248.63   -92526.497    236.08938    20724    226658.19    64.810901   -26.479669    281.25958   -60.347206    435.32983    23.500316    22.155384   0.37268287    435.70252   -2554.4527 
   12500   -102381.26   -92555.982    238.59403    20724    226678.23   -6.8791235   -105.13886    301.04626   -216.54477    435.11112    23.507261    22.161931   0.48203873    435.59316   -2523.9925 
   12600   -102289.49   -92535.608    236.86028    20724    226650.09   0.18476412    125.64526    -95.50801   -29.582953    435.25025    23.502045    22.157013   0.41247549    435.66272   -2543.9024 
   12700   -102244.52   -92486.294    236.96581    20724    226631.24   -5.9404436    21.594353    155.66824   -195.08392    435.30314     23.49964    22.154746   0.38602992    435.68917   -2595.7135 
   12800   -102242.14   -92479.824    237.06506    20724    226840.89    39.938859   -91.590411    41.057909    170.34908    435.48431    23.505615     22.16038   0.29544372    435.77976   -2600.3197 
   12900   -102230.97     -92448.1     237.5643    20724    226593.66   -12.825362     36.79375   -257.57426    182.30442    435.23523    23.499524    22.154637   0.41998295    435.65522   -2634.8842 
   13000   -102223.58   -92456.687    237.17624    20724    226728.17     38.30913   -197.71249     184.5339    128.10598    435.40726    23.501854    22.156833   0.33397214    435.74123   -2627.9415 
   13100   -102234.89   -92449.866    237.61665    20724    226830.51    28.595892    238.00925   -106.22263   -45.998945    435.47881    23.505226    22.160013    0.2981936    435.77701   -2632.4887 
   13200   -102186.61   -92424.229    237.06663    20724    226564.25    56.381686    99.758979    138.53031   -69.144236    435.41285    23.493206     22.14868   0.33117488    435.74403   -2667.2651 
   13300   -102197.45   -92400.467    237.90685    20724    226860.35   -60.149891   -88.091157    65.435912   -157.79443    435.28296     23.51206    22.166455   0.39612078    435.67908   -2676.7172 
   13400   -102205.46   -92456.493    236.74098    20724    226688.19    7.7438549    15.325369    46.462635    -38.55644    435.16341    23.506365    22.161087    0.4558973     435.6193   -2632.0584 
   13500   -102277.53   -92492.919    237.60647    20724    226620.87   -66.774681    21.109316   -257.92169    36.488332    435.43354    23.495583    22.150922    0.3208289    435.75437   -2595.5032 
   13600   -102187.38   -92458.507    236.25297    20724    226691.03    50.810679    139.74399   -179.56838    192.25642    435.31159    23.502511    22.157453   0.38180294     435.6934   -2634.6314 
   13700   -102312.61   -92428.635    240.01935    20724    226715.22     -127.412   -195.48952    10.359736   -197.10621    435.28247    23.504551    22.159376   0.39636512    435.67883   -2656.4565 
   13800   -102282.71   -92473.055    238.21471    20724    226548.98    80.989438    96.336739    477.79385   -331.16227    435.27971    23.496007    22.151321    0.3977442    435.67746   -2628.3847 
   13900   -102212.76   -92415.968    237.90231    20724    226593.72    25.630145    80.532453    96.992512   -100.63453    435.40679    23.494897    22.150275   0.33420691    435.74099   -2682.4007 
   14000   -102141.99   -92411.274    236.29778    20724    226710.73   -14.576622    10.651973    79.262073   -133.64391    435.17465     23.50723    22.161902   0.45027532    435.62492   -2683.9843 
   14100   -102218.57   -92433.503    237.61768    20724       226708   -61.026327   -45.263667    -298.1595    160.34419    435.13073    23.508275    22.162887   0.47223355    435.60297    -2660.098 
   14200   -102208.54   -92436.993     237.2892    20724     226712.4   -97.405494    126.93844   -124.06326   -295.09166    435.20609    23.506468    22.161183   0.43455501    435.64064   -2656.4892 
   14300   -102192.73   -92449.745    236.59574    20724    226610.31    33.009259    20.665839    41.405598    36.956339    435.20313    23.501254    22.156268   0.43603386    435.63917   -2652.6614 
   14400   -102131.71   -92423.191    235.75865    20724    226608.07   -6.6110618   -79.165699    173.35677   -114.02426    435.19068    23.501474    22.156476   0.44225944    435.63294   -2677.9804 
   14500   -102235.65   -92419.323    238.37664    20724    226685.42   -17.589886    26.584647    -145.0385    65.684197    435.11904     23.50742    22.162081   0.47807954    435.59712   -2681.2321 
   14600    -102222.6   -92393.081    238.69713    20724    226693.32   -39.276991   -101.00973   -185.59369    168.77245     434.9341    23.512827    22.167179   0.57055016    435.50465   -2708.0337 
   14700   -102228.58   -92383.892    239.06538    20724    226462.78   -20.305936   -100.21353   -92.673706    131.96942     435.1307    23.495558    22.150898   0.47225184    435.60295    -2725.766 
   14800      -102181   -92381.919    237.95799    20724    226635.21    11.259694   -98.338813   -106.30118    238.41907    435.21243    23.502294    22.157248   0.43138545    435.64381   -2724.5526 
   14900   -102195.06   -92370.888    238.56728    20724    226587.56   -20.919783    33.412554    62.205993    -158.3779    435.09353    23.503034    22.157946   0.49083343    435.58437   -2736.7523 
   15000   -102132.31   -92354.767    237.43483    20724    226587.88    37.452054   -27.498501   -14.969854    154.82452      435.066    23.503795    22.158663   0.50460058     435.5706   -2755.3942 
   15100   -102092.39   -92348.003    236.62971    20724    226656.71     72.00344   -63.798913    16.894108    262.91512    435.03162    23.508293    22.162904   0.52179047    435.55341   -2762.5675 
   15200    -102141.3   -92330.471    238.24322    20724    226579.43   -21.278973    88.890589   -92.389045   -60.338464    435.02191    23.504547    22.159373   0.52664632    435.54855    -2781.246 
   15300   -102170.25   -92352.506    238.41108    20724     226558.2    23.340574    179.91833   -273.34413    163.44753    434.97415    23.504736    22.159551   0.55052267    435.52468   -2764.6067 
   15400    -102102.8   -92326.339    237.40864    20724    226503.62    32.301197   -48.382184   -172.63678    317.92255    434.98926    23.501496    22.156496   0.54296802    435.53223   -2793.0745 
   15500   -102076.22   -92331.218    236.64479    20724    226683.73   -66.458412   -253.59026   -42.141537    96.356557     435.2491    23.503819    22.158686    0.4130482    435.66215   -2778.1516 
   15600   -102067.31   -92314.315    236.83878    20724    226585.26    84.490948   -134.65534    274.44544    113.68274    435.06827    23.503598    22.158477   0.50346683    435.57173   -2806.4033 
   15700   -102080.61   -92281.195    237.96592    20724    226665.48    43.345533    66.137341    49.616261    14.282996    435.31974    23.500967    22.155997   0.37772943    435.69747   -2836.4098 
   15800   -102071.52   -92310.081    237.04389    20724    226318.28   -21.807607    6.2150877   -40.856815   -30.781093    434.86732    23.495173    22.150535    0.6039412    435.47126    -2815.367 
   15900   -102114.75   -92274.086    238.96779    20724    226426.22   -57.828793   -3.6873016    -254.2068    84.407726    434.94936    23.498559    22.153727   0.56292131    435.51228   -2848.3249 
   16000   -102099.01   -92219.511     239.9108    20724    226309.66   -52.465821   -33.560721   -162.20228    38.365534    434.90151    23.493802    22.149242   0.58684559    435.48835   -2908.1438 
   16100      -102062   -92282.492    237.48255    20724    226219.85    61.820085    255.22286    49.145522   -118.90813    434.76533    23.492818    22.148315   0.65493277    435.42027    -2854.169 
   16200   -102062.09   -92253.505    238.18865    20724    226356.21   -63.066125   -112.29122   -12.557609   -64.349544    434.70861     23.50143    22.156434   0.68329318    435.39191    -2873.356 
   16300   -102127.96   -92274.971    239.26689    20724    226203.89    69.422646    130.34431    348.80976   -270.88614    434.45734    23.500315    22.155382   0.80892836    435.26627   -2865.1351 
   16400   -102059.63    -92207.68    239.24171    20724    226288.94    49.243573 -0.015891162    78.494836    69.251775    434.66538    23.499107    22.154243   0.70491101    435.37029   -2929.3611 
   16500      -102060   -92235.717    238.56997    20724    226365.75   -5.1003662   -92.938256   -4.4822385    82.119396     434.5403    23.506477    22.161192   0.76744898    435.30775   -2897.8181 
   16600   -102095.22   -92208.682    240.08182    20724    226320.48   -12.119747   -41.363452   -46.576453    51.580665    434.46792    23.506084    22.160822   0.80363858    435.27156   -2925.6325 
   16700   -102009.45   -92220.785    237.70502    20724    226304.39    41.199159    20.749932    81.754157    21.093387    434.41146    23.506776    22.161474   0.83186976    435.24333    -2917.682 
   16800   -102068.23   -92203.926    239.54183    20724    226475.07   -9.9924456    47.640995    -69.35919   -8.2591418    434.52759    23.512496    22.166866   0.77380423     435.3014   -2928.8314 
   16900   -101981.17   -92171.397     238.2176    20724     226599.7     86.48353   -124.48857    55.445043    328.49412    434.77064     23.51239    22.166767   0.65228183    435.42292   -2965.0731 
   17000   -102076.36   -92136.401    241.37886    20724    226697.27    2.4716367    -214.3439    224.66167   -2.9028575    434.79548     23.51678    22.170905   0.63986079    435.43534   -2995.0519 
   17100   -102031.91   -92197.152    238.82432    20724    226415.88   -107.78997   -183.27103   -6.1100739    -133.9888    434.79059    23.502312    22.157265   0.64230481     435.4329   -2937.6206 
   17200   -101950.56   -92151.065    237.96789    20724    226585.81    101.41686    263.77142   -63.369919    103.84908    434.63257    23.515404    22.169608   0.72131455    435.35389   -2990.2056 
   17300   -101967.41   -92169.379    237.93242    20724    226546.62   -56.542398   -7.2592758   -148.39406   -13.973857     434.5296    23.516156    22.170317   0.77279837     435.3024   -2966.9114 
   17400   -101950.69   -92117.066    238.79674    20724    226504.07    61.776988   -168.28019    481.37354   -127.76239    434.38678    23.517812    22.171878   0.84421087    435.23099   -3026.6366 
   17500   -101940.27   -92140.889    237.96532    20724    226568.37    127.69019    106.73939    240.87671    35.454473    434.54947    23.516747    22.170874   0.76286663    435.31233   -3006.5574 
   17600   -101892.17   -92129.908    237.06384    20724    226339.57    5.9691727   -73.334526   -44.446053     135.6881     434.4239    23.508267    22.162879   0.82565189    435.24955   -3019.4626 
   17700   -101992.84   -92078.041    240.76806    20724    226406.77    -2.023502   -14.223774   -26.009224    34.162493    434.66814    23.505149     22.15994   0.70352848    435.37167   -3069.3145 
   17800   -101926.26   -92099.749    238.62414    20724    226533.97    25.667284    21.952384    -86.58342    141.63289     434.5067    23.516119    22.170282   0.78424981    435.29095   -3045.4617 
   17900   -101903.72   -92088.314    238.35434    20724    226335.89    79.059792   -3.1253628    75.580738      164.724    434.49302    23.506205    22.160936   0.79108872    435.28411   -3066.5893 
   18000   -101899.11   -92044.744    239.30055    20724    226382.24   0.32315078   -132.55984    212.41148   -78.882187    434.47912    23.508988    22.163559   0.79804114    435.27716   -3106.0064 
   18100   -101943.58   -92046.003    240.34988    20724    226182.14   -96.206685    61.844396   -294.02331   -56.441137    434.42877    23.499958    22.155046   0.82321538    435.25198   -3108.3644 
   18200   -101925.68   -92069.564    239.34289    20724    226240.33    42.609363    1.9993569   -11.604691    137.43342    434.22469    23.508503    22.163102   0.92525582    435.14994    -3089.441 
   18300   -101887.93   -92040.735    239.12632    20724    226335.55   -58.600139    107.74586    177.68501   -461.23129    434.35754    23.509853    22.164375   0.85883037    435.21637   -3111.1748 
   18400   -101880.63   -92013.758     239.6042    20724    226209.75    -53.39922    115.81835    32.015019   -308.03103    434.55211    23.498057    22.153253   0.76154334    435.31366   -3143.9365 
   18500   -101921.58   -92067.005     239.3054    20724    226269.16    37.261121     211.1775   -134.86472    35.470576    434.36948    23.506082    22.160819   0.85285941    435.22234   -3094.9894 
   18600   -102040.79   -92065.724    242.23153    20724    226417.09   -10.950046   -181.22443   -1.5695853    149.94388    434.63513    23.506578    22.161287   0.72003273    435.35517   -3092.3641 
   18700   -101927.87   -92033.391     240.2746    20724    226304.29    2.5573344    127.17657    -110.9112   -8.5933667    434.60335    23.501581    22.156576   0.73592655    435.33927   -3131.0935 
   18800   -101883.25   -91996.476    240.08738    20724    226380.06   -33.154296   -22.367321   -183.58436    106.48879    434.52448    23.507648    22.162296   0.77535983    435.29984   -3163.2225 
   18900   -101867.63   -92030.426    238.88375    20724    226356.15     59.80043    10.119793    181.02019   -11.738698    434.31165    23.512165    22.166554    0.8817753    435.19342   -3135.4252 
   19000   -101907.62   -92012.152    240.29866    20724    226215.28   -29.870849   -24.732358   -69.122506    4.2423169    434.39832    23.502503    22.157445   0.83843793    435.23676   -3154.3821 
   19100   -101904.06   -91990.606    240.73539    20724       226335    68.809625     71.92256    236.88664   -102.38033     434.3414    23.510261     22.16476   0.86689768     435.2083   -3178.5664 
   19200   -101793.34   -91949.844     239.0365    20724    226200.71    33.710716   -8.8354818   -49.585464    159.55309    434.25757    23.505554    22.160322   0.90881253    435.16639   -3220.3737 
   19300    -101858.1   -91966.697    240.19987    20724    226301.98    81.841117   -119.62842    83.891771       281.26    434.48035    23.504787    22.159599   0.79742507    435.27777   -3204.1303 
   19400   -101773.68   -91942.106    238.74695    20724    226268.51    71.598822    130.77471    141.91044   -57.888692    434.46216    23.503541    22.158424   0.80651752    435.26868   -3230.2165 
   19500   -101906.92   -91936.634    242.11531    20724    226350.45    40.235457    198.85335    153.53254   -231.67952    434.39576    23.509593     22.16413    0.8397197    435.23548   -3231.5749 
   19600   -101920.47   -91945.307    242.23394    20724    226258.29   -76.459512   -69.584795   -88.333534   -71.460206    434.26446    23.508359    22.162966      0.90537    435.16983   -3223.8743 
   19700   -101818.24   -91886.269    241.18508    20724    226225.48    149.44336    127.45623    241.26358    79.610248    434.28434    23.506117    22.160852   0.89543095    435.17977   -3296.2063 
   19800   -101818.66   -91877.575    241.40632    20724    226257.11   -55.924534     12.97916   -123.01752   -57.735242    434.07106    23.513535    22.167846    1.0020721    435.07313   -3293.3088 
   19900   -101655.85   -91846.228     238.2138    20724    226153.38    6.7922816   -130.90265    238.29986   -87.020366    434.05205    23.508659    22.163249    1.0115753    435.06362   -3331.3333 
   20000   -101757.13   -91877.374    239.91695    20724    226154.51    94.884655    130.92266    203.40646    -49.67516    434.14013    23.506333    22.161056   0.96753569    435.10766   -3307.2379 
   20100   -101691.49   -91839.774    239.23619    20724    226309.99    38.796241    122.05575   -182.46265    176.79562     434.1915     23.51302     22.16736   0.94184783    435.13335   -3338.2897 
   20200   -101801.66   -91884.698    240.82049    20724    226155.75   -6.6231337   -96.963763   -106.97896    184.07332    434.25079    23.503402    22.158293   0.91220662    435.16299     -3298.69 
   20300   -101843.19   -91833.077    243.08245    20724    226233.15     -64.4489    91.829648   -253.13325   -32.043103    434.28593    23.506472    22.161187   0.89463539    435.18056   -3344.0459 
   20400   -101808.12   -91846.799    241.89783    20724    226416.14   -27.509194   -168.06426   -139.44294    224.97962    434.46435    23.511148    22.165595   0.80542665    435.26977   -3329.1755 
   20500   -101781.75   -91835.026    241.54323    20724    226256.46  0.043262788   -123.88471   -41.246709     165.2612    434.40617     23.50443    22.159262   0.83451532    435.24068   -3347.0932 
   20600    -101788.4    -91797.43    242.61762    20724     226523.2   -1.9331461   -4.6181768   -38.038938    36.857677    434.62037    23.512485    22.166856   0.72741551    435.34778   -3378.6125 
   20700    -101698.3   -91817.056    239.95323    20724    226357.79    16.544397    3.3297813    137.51306   -91.209647    434.74961    23.500404    22.155467   0.66279422    435.41241   -3363.9116 
   20800   -101757.67    -91822.11    241.27205    20724    226494.72    11.203241   -190.34713   -28.432363    252.38921     434.6992    23.508874    22.163452   0.68799848     435.3872   -3355.3889 
   20900   -101719.57   -91816.568    240.48142    20724    226270.59   -9.5331311    39.878712    173.91833   -242.39644     434.4979    23.502682    22.157614   0.78865207    435.28655   -3367.3737 
   21000   -101701.56   -91763.773    241.32628    20724    226415.67    24.445135    -27.85115    164.06862   -62.882066     434.7846    23.502463    22.157408   0.64529835     435.4299   -3420.2274 
   21100   -101718.84   -91766.679    241.67526    20724    226446.44    77.613373   -26.260923    61.643562    197.45748    434.72374    23.505705    22.160464   0.67572923    435.39947   -3419.3247 
   21200   -101745.38   -91797.447    241.57256    20724    226462.34   -36.732479   -53.444127    170.18705   -226.94036    434.61007    23.509604     22.16414   0.73256485    435.34264   -3382.2812 
   21300   -101821.49   -91771.915     244.0409    20724    226435.26   -19.530526    -162.1928   -164.00011    267.60134    434.41527    23.513469    22.167784   0.82996336    435.24524   -3412.1251 
   21400   -101749.35   -91725.718    243.41073    20724    226412.85   -41.275355    51.035425   -148.32869     -26.5328    434.56891    23.508148    22.162768   0.75314684    435.32205   -3457.1681 
   21500   -101711.12    -91770.36    241.39833    20724    226377.52    72.615474   -47.615314   -7.2845232    272.74626    434.59867     23.50551     22.16028   0.73826746    435.33693   -3420.7372 
   21600   -101725.82   -91739.419    242.50668    20724    226469.24   -44.283275   -285.12668    216.15452   -63.877663    434.79476    23.504969     22.15977   0.64022082    435.43498   -3443.9855 
   21700   -101640.97   -91722.386    240.85997    20724     226410.5   -42.452087   -67.327042   -109.36391    49.334686    434.73956    23.503412    22.158303   0.66781928    435.40738   -3463.1737 
   21800   -101728.62   -91712.465    243.22917    20724    226403.63   -79.762255   -283.28477   -79.092652    123.09066    434.48884    23.509836    22.164358   0.79318054    435.28202   -3472.8951 
   21900   -101792.42   -91720.378    244.58641    20724    226486.48   -47.330287   -118.50474   -207.78768    184.30156    434.82191     23.50513    22.159922   0.62664511    435.44855   -3467.2629 
   22000    -101630.4   -91699.597    241.15672    20724    226401.15   -35.262191    83.690418   -167.90344   -21.573552     434.6009    23.506676    22.161379   0.73714817    435.33805   -3488.8544 
   22100   -101585.23    -91671.28    240.74729    20724    226358.99    21.361958  -0.25746237    3.8014484    60.541889    434.69946    23.501822    22.156803   0.68786876    435.38733   -3522.8534 
   22200   -101658.83   -91650.089    243.04922    20724    226343.75   -21.511227   -204.30506    256.25213   -116.48075    434.54124    23.505309    22.160091   0.76697998    435.30822    -3543.818 
   22300   -101716.47   -91661.943    244.16119    20724     226691.7   -114.60931   -385.82532    135.36511   -93.367698    434.61183    23.521459    22.175316   0.73168442    435.34352   -3519.6669 
   22400   -101728.62   -91661.255    244.47283    20724    226408.43   -41.656377    252.02204   -249.26641   -127.72476    434.74178    23.503244    22.158144   0.66670919    435.40849   -3533.6438 
   22500   -101539.43   -91613.932     241.0278    20724    226410.81    47.965074   -58.841081   -31.228209    233.96451    434.62129    23.506626    22.161332   0.72695359    435.34825   -3585.9599 
   22600   -101573.34   -91621.141     241.6761    20724    226386.06    16.373582   -14.107329   -215.12183    278.34991    434.62147    23.505336    22.160117   0.72686423    435.34834   -3578.8359 
   22700   -101506.88   -91624.864     239.9719    20724    226374.85     24.98053    78.719179    53.907317   -57.684906    434.50328    23.507951    22.162581   0.78596112    435.28924   -3574.9217 
   22800   -101570.87   -91605.649    241.99231    20724    226370.75   -1.3610435   -89.047731    290.39289   -205.42829    434.54951    23.506487    22.161202   0.76284659    435.31235   -3596.4292 
   22900    -101623.1   -91627.881    242.72094    20724    226515.63    33.635625   -51.775625    33.129445    119.55305    434.52812    23.514587    22.168838   0.77354123    435.30166   -3573.5543 
   23000   -101671.08   -91629.878    243.83744    20724    226459.24   -17.435926   -38.489579   -17.809491    3.9912919    434.50495    23.512287    22.166669   0.78512718    435.29007   -3570.8759 
   23100   -101645.94   -91635.875    243.08136    20724     226306.9    10.877483   -91.762665    173.73707   -49.341953    434.38233    23.507694    22.162339   0.84643265    435.22877   -3573.7802 
   23200   -101651.31   -91602.969    244.01077    20724    226413.91    6.3429627    111.08345    70.789574   -162.84413    434.62732    23.506624     22.16133   0.72394231    435.35126    -3604.742 
   23300   -101578.89   -91543.148    243.70491    20724    226572.32     -6.59083    17.703394    215.00379   -252.47967    434.48679    23.518648    22.172666   0.79420292      435.281   -3659.5197 
   23400   -101578.39   -91561.631    243.24384    20724    226383.29    12.707379    88.793502    107.64286   -158.31422    434.45927     23.50958    22.164117    0.8079651    435.26723   -3647.3389 
   23500   -101547.88   -91556.017    242.63948    20724    226157.18    -97.76577   -138.43883   -187.45464    32.596161    434.09702    23.507638    22.162287   0.98908835    435.08611   -3654.6898 
   23600   -101598.75    -91545.32    244.13434    20724    226120.56    33.622797    99.150478   -9.1682374    10.886151    434.01183    23.508042    22.162667    1.0316829    435.04352    -3673.721 
   23700   -101535.75   -91519.831    243.22344    20724    226317.19   -11.611691   -36.086321    32.316589   -31.065341    434.46471       23.506    22.160742   0.80524657    435.26995   -3695.1889 
   23800   -101406.42   -91478.538    241.08572    20724    226160.39    28.620921   -35.908053   -186.26823    308.03905    434.12377    23.507081    22.161762   0.97571312    435.09949   -3742.6824 
   23900   -101474.18   -91470.157    242.93466    20724    226404.16    8.4869977    92.092522   -289.21658    222.58505    434.41116    23.511965    22.166366   0.83201874    435.24318   -3747.4618 
   24000   -101539.59    -91488.45    244.07893    20724    226319.53   -100.89141   -102.96057   -160.24056   -39.473113     434.5236    23.504528    22.159355   0.77579848     435.2994   -3727.1936 
   24100   -101408.96   -91493.743    240.77823    20724    226312.59   -36.069244   -119.01182    86.479368   -75.675277    434.55129    23.503419    22.158309   0.76195676    435.31324    -3724.859 
   24200   -101400.92   -91440.902    241.86603    20724    226423.55    11.669198   -80.293032    234.10575   -118.80512    434.45102    23.511894    22.166299   0.81209116    435.26311   -3775.9874 
   24300    -101554.4    -91489.42    244.41489    20724    226327.11    122.91308    86.509659    128.39636    153.83321    434.41578    23.507839    22.162476    0.8297078    435.24549   -3740.8806 
   24400   -101468.07   -91473.827    242.69726    20724       226518   -1.3865932    17.445698   -46.151257     24.54578    434.37587    23.518831    22.172839   0.84966638    435.22553   -3743.8673 
   24500   -101403.18   -91484.141    240.87098    20724    226228.27    50.233265    41.470615    66.015713    43.213468    434.45854    23.501549    22.156546   0.80833174    435.26687   -3746.1476 
   24600   -101516.78   -91440.188    244.69685    20724     226450.7   -9.6176029    36.492656    61.767668   -127.11313    434.58378    23.509711    22.164241   0.74571142    435.32949   -3782.5694 
   24700   -101475.35   -91426.963    244.01206    20724    226291.97   -20.428813   -82.208208   -190.44561    211.36738    434.37505    23.507116    22.161794   0.85007446    435.22513   -3799.1476 
   24800   -101428.75   -91428.704    242.83804    20724    226289.08    65.510354   -31.769404    239.63434   -11.333874    434.55936     23.50198    22.156953   0.75791869    435.31728   -3805.2547 
   24900   -101500.85   -91416.185    244.89304    20724    226514.53   -8.5469187   -112.40588   -10.287453    97.052579    434.63817    23.511553    22.165977   0.71851624    435.35668   -3806.2351 
   25000   -101493.13   -91425.744    244.47328    20724     226255.6    17.557708    113.17062     48.78352   -109.28102    434.47695     23.50247    22.157414   0.79912464    435.27608   -3808.2847 
   25100   -101400.42   -91395.059    242.96712    20724    226318.09    59.727563    98.060497    44.211487    36.910705    434.39537    23.507923    22.162555   0.83991335    435.23529   -3838.0793 
   25200    -101459.8   -91382.048    244.72513    20724    226254.08   -25.595085      128.908   -5.3061788   -200.38708     434.2035    23.509791    22.164316   0.93585217    435.13935   -3851.5402 
   25300   -101465.21   -91371.675    245.10829    20724    226051.55   -40.356369    24.750814   -166.56996    20.750039    433.84117    23.509077    22.163643    1.1170157    434.95818   -3868.6206 
   25400    -101463.7   -91365.484    245.22191    20724    226055.69   -4.2141751   -145.07938    -147.6099    280.04675    433.86019    23.508777     22.16336    1.1075028     434.9677   -3878.6726 
   25500   -101495.91   -91372.924    245.82358    20724    226009.23   -18.520627    75.116707   -112.74964   -17.928945    433.80696    23.507803    22.162442    1.1341192    434.94108   -3873.5268 
   25600   -101508.03   -91382.152    245.89374    20724    225972.38   -67.539285    -242.0457   -128.84174    168.26959     433.7675    23.506956    22.161643    1.1538493    434.92135   -3864.0221 
   25700   -101439.23   -91338.032    245.29449    20724     225972.7   -17.999253   -6.0181988    192.07277   -240.05233    433.61954    23.510983     22.16544    1.2278323    434.84737   -3911.1673 
   25800    -101339.7   -91324.642    243.20261    20724    225793.39    53.607165    2.0491379     194.5257   -35.753345    433.54288    23.503731    22.158603    1.2661609    434.80904    -3932.112 
   25900   -101348.74   -91315.744    243.63834    20724    226017.17   -2.5004621    201.10483   -96.000553   -112.60566    433.72827    23.510349    22.164842    1.1734631    434.90174   -3933.0914 
   26000   -101350.27   -91315.608    243.67866    20724    226126.03   -62.353946   -14.209054   -262.00202    89.149237    433.91003    23.511084    22.165535    1.0825838    434.99262   -3929.3909 
   26100   -101275.72   -91317.109    241.83184    20724    225985.46    56.438006   -21.081361    -204.5849    394.98028    434.09123    23.498869    22.154019   0.99198599    435.08321   -3938.0711 
   26200   -101368.23   -91318.895    244.03496    20724    225930.96    13.732062   -32.789909   -107.96931     181.9554    433.97229    23.499255    22.154383    1.0514559    435.02374    -3940.131 
   26300   -101248.66   -91307.919    241.39805    20724    226103.57    88.805022    78.358161    49.614095    138.44281    433.95358    23.508736    22.163322    1.0608081    435.01439   -3949.5876 
   26400   -101358.21   -91301.366    244.21729    20724    225987.42   -94.108083    130.57867   -248.07891     -164.824    433.78049    23.507386    22.162049    1.1473542    434.92785   -3951.3997 
   26500   -101417.31    -91295.55     245.7937    20724    226047.39    19.232333    7.5167855   -8.7118226    58.892037    433.87808    23.507861    22.162496    1.0985605    434.97664   -3961.0452 
   26600   -101389.21   -91233.302     246.6229    20724    226063.22   -20.143489   -122.18179   -11.957872    73.709193    433.95536    23.506591    22.161299    1.0599198    435.01528   -4022.4078 
   26700   -101246.96    -91157.99    244.99749    20724    226050.24    59.053749   -39.250375    74.743251    141.66837    433.79642    23.510222    22.164722    1.1393895    434.93581   -4103.1587 
   26800   -101229.02   -91184.162    243.92634    20724    225955.27   -28.964622   -34.512604     257.9649   -310.34616    433.60088    23.510582    22.165062    1.2371595    434.83804   -4075.1128 
   26900      -101427    -91206.07    248.20194    20724    226082.69   -7.2615322   -3.0307819    41.245241   -59.999056    433.92546    23.508413    22.163017    1.0748723    435.00033   -4053.1792 
   27000   -101306.43    -91214.59    245.06716    20724     226054.8    35.307451   -117.45442    16.878631    206.49814    433.55982    23.516873    22.170993     1.257691    434.81751   -4048.7865 
   27100   -101346.67   -91171.925    247.08046    20724    226282.22   -71.466297   -33.163174    86.993148   -268.22887    433.66711    23.525788    22.179398    1.2040448    434.87116   -4081.1315 
   27200   -101130.05   -91154.361    242.24659    20724    226305.48    87.308253     183.6993   -152.12222    230.34767    433.78636    23.523763    22.177489    1.1444215    434.93078   -4105.6949 
   27300   -101165.82   -91110.661    244.17651    20724    225959.16   -8.8113754   -9.3874568    38.910602   -55.957271      433.377    23.516856    22.170977    1.3490987     434.7261   -4156.1383 
   27400   -101259.77   -91148.327    245.54333    20724    226129.44    105.21515    174.05469      146.635   -5.0442469    433.52372    23.521734    22.175576    1.2757385    434.79946   -4120.9802 
   27500   -101302.03   -91171.255    246.01263    20724    226047.38   -15.499033    47.691515    105.38842   -199.57704    433.34537    23.522305    22.176114    1.3649172    434.71028    -4095.036 
   27600   -101295.62   -91198.792    245.18837    20724    226267.61    18.573589    -62.16853    46.187176    71.702122    433.81884    23.520915    22.174803    1.1281822    434.94702   -4062.7976 
   27700   -101314.74   -91172.188    246.29865    20724    226247.62    66.859356    64.704836   -38.947926    174.82116    433.74834    23.521787    22.175626    1.1634283    434.91177   -4095.3177 
   27800   -101320.65   -91128.289    247.50809    20724    226257.68   -38.641531   -47.661984   -85.651775    17.389166    433.86952    23.519025    22.173022    1.1028414    434.97236   -4136.8692 
   27900   -101192.66   -91159.927    243.63194    20724    226362.96    58.653409   -41.307435    68.719222    148.54844    433.62632    23.531092    22.184398    1.2244395    434.85076   -4102.9345 
   28000   -101364.25   -91139.707    248.28973    20724    226354.03   -46.054438   -271.41021   -183.95803    317.20493    433.58385     23.53178    22.185047    1.2456736    434.82953   -4123.4947 
   28100    -101229.7   -91110.622    245.72851    20724    226186.04   -14.137113    110.50173    156.87235   -309.78542    433.73779    23.518871    22.172877    1.1687038     434.9065   -4159.9654 
   28200   -101287.66   -91143.254     246.3436    20724    226129.09   -85.493887   -133.92125    48.186718   -170.74713    433.83602    23.513248    22.167576    1.1195912    434.95561   -4124.9102 
   28300    -101154.6   -91145.158     243.0662    20724    226189.66    59.917646    242.76373    118.31361    -181.3244    434.01703    23.511493    22.165921    1.0290874    435.04611    -4130.605 
   28400   -101247.39   -91068.908    247.17107    20724    226201.99    7.5208856    55.713612    54.596072   -87.747026    434.14594    23.508643    22.163234   0.96463188    435.11057    -4205.682 
   28500   -101191.16   -91104.676    244.93701    20724    226177.38   -21.769313    250.71185   -5.4291237   -310.59067    433.77993    23.517279    22.171376     1.147635    434.92757   -4169.3581 
   28600   -101216.02   -91089.273    245.91494    20724    226159.59   -49.136933   -36.080666    148.20948   -259.53962    433.75358    23.517068    22.171177    1.1608109    434.91439   -4185.2353 
   28700   -101249.31   -91059.402    247.44855    20724    226220.21   -11.614728    109.05448    159.69084    -303.5895    434.00813    23.513322    22.167645     1.033535    435.04167   -4217.0993 
   28800   -101133.74   -91080.215    244.13668    20724    226087.34   -51.063494   -210.69258   -100.75587    158.25797    434.04386    23.505448    22.160222    1.0156722    435.05953   -4198.1497 
   28900   -101074.11   -91035.527    243.77388    20724    226088.83    57.355233   -111.56406    268.15902    15.470741    434.03743    23.505699    22.160459    1.0188869    435.05631   -4248.4694 
   29000   -101222.14   -91057.036    246.84633    20724    226191.63    34.991115    237.95022   -35.912635   -97.064237    433.99586    23.512169    22.166558    1.0396694    435.03553   -4225.3894 
   29100   -101202.11    -91047.85    246.58304    20724    226092.31    53.352351    63.131073    131.03736   -34.111379    433.84328    23.511139    22.165587    1.1159577    434.95924   -4240.3028 
   29200   -101082.99   -91005.296    244.72363    20724     226115.2   -32.978326    24.010468   -80.419047   -42.526399    433.58626    23.519297    22.173278    1.2444721    434.83073   -4278.0185 
   29300   -101200.15   -91047.324    246.54805    20724    226147.91    18.443725    99.575451    24.013827   -68.258101    433.80727    23.515006    22.169233     1.133965    434.94123   -4238.4101 
   29400   -101191.16   -91057.111    246.09225    20724    226210.25   -30.209701    123.18464   -161.57611   -52.237628    433.85154    23.517047    22.171157    1.1118287    434.96337   -4225.9653 
   29500   -101109.81   -91030.518    244.76245    20724    226262.42    1.9826404   -56.783942   -41.321649    104.05351    433.87852    23.519027    22.173024    1.0983376    434.97686   -4252.4033 
   29600   -101189.91   -91028.127    246.76554    20724    226186.49    34.907093    40.311006   -101.04537    165.45564    434.16588    23.507297    22.161965   0.95465914    435.12054   -4260.3018 
   29700   -101101.97   -91029.429    244.59861    20724    226198.71     21.26746    5.2344068   -256.35336    314.92133    434.06055    23.510784    22.165253    1.0073235    435.06788   -4260.3675 
   29800   -101108.13   -91020.105    244.97462    20724    226254.93   -18.573592   -146.30371    219.54952   -128.96659    434.33034    23.506402    22.161121   0.87243032    435.20277    -4266.088 
   29900   -101201.24   -91021.834     247.1937    20724    226301.09    78.722349    17.655892    327.65472   -109.14357    434.14538    23.513806    22.168102   0.96490845    435.11029   -4271.0452 
   30000   -101190.99   -91034.977    246.62548    20724    226175.82    36.069193    125.74791    221.45642   -238.99674     434.1969    23.505903    22.160651   0.93914839    435.13605   -4261.4861 
   30100   -101128.35   -91009.979    245.71148    20724    226309.75      83.9482    145.28375    166.12223   -59.561381    433.91933    23.520381      22.1743    1.0779326    434.99727   -4285.0478 
   30200    -101115.8   -91025.866    245.02093    20724    226341.97   -47.414343    20.360519   -170.69242    8.0888762    433.84016    23.524201    22.177901    1.1175186    434.95768   -4261.9832 
   30300   -101189.93   -91035.924    246.57672    20724    226293.74   -47.891624    46.855834   -341.39233    150.86162    433.98863    23.517671    22.171745    1.0432856    435.03191   -4254.2843 
   30400    -101189.7   -91008.219    247.24411    20724    226187.28    36.949465    23.948915   -53.301857    140.20134    434.00969    23.511568    22.165991    1.0327526    435.04245   -4291.1782 
   30500   -101158.28   -91005.824    246.53926    20724    226198.62   -87.499097   -32.018907    176.18048   -406.65886    433.64914    23.521929     22.17576    1.2130289    434.86217   -4287.5205 
   30600   -101227.73   -90950.716    249.56395    20724    226269.71    67.840861    223.34068    61.702021   -81.520116    433.81644    23.521089    22.174968    1.1293818    434.94582   -4350.1417 
   30700   -101244.89    -90984.58    249.15816    20724    226058.78    32.715713   -7.3478325   -52.618782    158.11375    433.52547    23.518012    22.172066    1.2748669    434.80033   -4322.0644 
   30800   -101064.02   -91009.179    244.16875    20724    226022.86    11.727723   -72.038839   -256.54641    363.76842    433.53826    23.515796    22.169977     1.268471    434.80673   -4296.3323 
   30900    -101033.2   -90978.986    244.15345    20724    226056.88    26.996845   -132.37174   -36.659406    250.02168    433.90813     23.50754    22.162194    1.0835347    434.99167   -4327.7795 
   31000   -101169.13    -90989.04    247.21011    20724    226120.49   -92.711543   -203.28437   -85.021575    10.171319    433.74216    23.515345    22.169552    1.1665213    434.90868   -4310.3818 
   31100   -101136.51    -90998.48    246.18882    20724    225848.71   -86.396021    -198.5754    31.945927   -92.558589    433.60749    23.504858    22.159665    1.2338551    434.84134   -4311.6267 
   31200   -101153.36   -91016.366    246.16364    20724    226033.67   -106.02573    35.479614    8.7614002    -362.3182    433.74103    23.510861    22.165325    1.1670843    434.90812    -4289.837 
   31300   -101206.18   -90956.386    248.90291    20724    226192.21   -105.77283   -102.14208   -82.576938   -132.59947    433.77669    23.518138    22.172186    1.1492555    434.92594   -4347.8741 
   31400   -101044.58   -90993.104    244.08701    20724    226028.72   -43.842073   -76.091559   -134.10574     78.67108    433.53317    23.516239    22.170395    1.2710165    434.80418   -4319.1816 
   31500   -101060.43   -90990.563    244.53361    20724    226144.71     73.74714    22.051661   -193.00636    392.19612    433.89586    23.512439    22.166813    1.0896724    434.98553   -4325.2824 
   31600   -101167.24   -90981.562    247.34603    20724    226205.79    19.612852   -25.725808      139.584   -55.019636    433.74053    23.519824    22.173775    1.1673351    434.90786   -4331.2959 
   31700    -101068.8   -90940.822    245.94485    20724    226046.13    88.324228    155.27568   -167.31072    277.00772    433.91605    23.506767    22.161465    1.0795752    434.99562   -4383.4138 
   31800   -101149.03   -90938.045    247.96042    20724    226177.56    123.07028    168.40705    355.43342   -154.62962    433.72608    23.518749    22.172761    1.1745618    434.90064   -4385.0327 
   31900   -101179.58   -90944.911     248.5355    20724    226067.82    -49.65641   -134.85378    69.443426   -83.558877    433.93144    23.507478    22.162135    1.0718822    435.00332   -4374.0239 
   32000   -101142.03   -90924.014    248.13121    20724    225977.84    24.621985   -51.426641   -232.84081    358.13341    433.97244    23.501688    22.156677    1.0513784    435.02382     -4403.33 
   32100   -101032.88   -90902.221    246.00979    20724    225956.45    6.5058425   -15.316264   -5.4936703    40.327462    433.72163     23.50737    22.162034    1.1767871    434.89841   -4423.3462 
   32200   -101123.72   -90965.471    246.67991    20724    225860.82     29.12412   -25.990982    141.03525   -27.671902    433.77842    23.500857    22.155893     1.148389    434.92681   -4366.3562 
   32300   -101019.71   -90923.445    245.17473    20724    225964.99    -16.32229   -129.42332    49.590738    30.865711    433.66936    23.509231    22.163789    1.2029218    434.87228   -4403.3734 
   32400   -101030.35   -90918.156    245.56153    20724    225996.15    125.88472    109.32536    73.431883    194.89691    433.73474     23.50908    22.163646    1.1702311    434.90497   -4416.2124 
   32500   -101160.15   -90927.753    248.48043    20724    225919.66   -66.056921    81.624754   -181.13267   -98.662844    433.75656     23.50451    22.159337    1.1593212    434.91588   -4402.8878 
   32600   -100992.76   -90924.069    244.50507    20724    225964.04    194.80904   -42.318209    393.91751    232.82782    433.66542    23.509288    22.163842    1.2048921    434.87031   -4417.3188 
   32700   -101065.59   -90880.083    247.34179    20724    226022.01     16.36169    174.62629   -43.114751   -82.426468    433.64127    23.512959    22.167303    1.2169641    434.85824   -4452.3819 
   32800    -101058.3   -90878.023    247.21486    20724    226160.55    28.954829   -49.829304    44.113161    92.580629    433.89883    23.513182    22.167513    1.0881848    434.98702   -4452.4723 
   32900   -101090.49   -90870.618    248.17632    20724    225803.23   -109.28045   -161.31373   -485.43554    318.90793    433.50197    23.505352    22.160131    1.2866149    434.78859   -4464.7127 
   33000   -100979.98   -90827.012    246.55157    20724    226088.65    25.011524    30.096621   -26.812047    71.749999    433.80763    23.511915    22.166319    1.1337861    434.94141    -4506.012 
   33100   -101005.71   -90835.661     246.9663    20724    226068.56  -0.72592528   -93.817986    131.27722   -39.637007      433.734    23.512866    22.167215    1.1706009     434.9046   -4498.0625 
   33200   -100991.37    -90873.58    245.69745    20724    225989.55    34.319566    204.72725    119.53556   -221.30411    433.70611    23.509512    22.164054    1.1845449    434.89066   -4465.1128 
   33300   -101023.29   -90812.245    247.96201    20724    226017.01    20.883634   -92.144027    50.204715    104.59021    433.91666    23.505236    22.160022    1.0792707    434.99593   -4526.8924 
   33400   -101014.91   -90838.425    247.12257    20724    226056.14    12.020726    94.488305   -26.377698   -32.048427    433.76359    23.511418     22.16585    1.1558059    434.91939    -4499.825 
   33500   -101011.97   -90849.003    246.79451    20724    225975.05    84.346664    179.35199    269.35282   -195.66481     433.8971    23.503584    22.158464     1.089052    434.98615   -4496.6925 
   33600   -100942.59   -90815.631    245.92006    20724    225785.96   -9.7813965    41.897456    27.962514    -99.20416    433.84799    23.495078    22.150445    1.1136051    434.96159   -4529.5515 
   33700   -100972.53   -90770.956    247.73205    20724    226085.12   -21.179437   -97.455115    78.524413   -44.607609    433.85895    23.510341    22.164834     1.108126    434.96707   -4567.3003 
   33800   -101000.02    -90791.43    247.90242    20724     225938.5    29.568215    61.491891   -26.295983    53.508737    433.70652    23.506846     22.16154    1.1843412    434.89086   -4555.5416 
   33900   -100960.33   -90765.103     247.5777    20724    225931.83    -30.70927    51.439786     -77.9403   -65.627295    433.53061    23.511267    22.165708    1.2722936    434.80291   -4577.9381 
   34000   -101003.26   -90736.114    249.32423    20724    225712.37    -34.37288   -58.850472   -72.568325    28.300155    433.46902    23.501515    22.156514    1.3030902    434.77211   -4614.9954 
   34100   -100906.92   -90762.346    246.34773    20724    225772.14    46.135134     89.83258    -417.7251    466.29792    433.50339    23.503695    22.158569    1.2859061    434.78929   -4592.5546 
   34200   -100924.09   -90705.177    248.15302    20724    225668.49   -14.460128    79.265938   -89.704899   -32.941423    433.17032    23.507331    22.161997    1.4524382    434.62276   -4651.0216 
   34300   -100917.44   -90686.313    248.44954    20724    225721.51    39.465992    68.156305    159.73743   -109.49576    433.20134    23.509251    22.163807    1.4369318    434.63827   -4670.9459 
   34400   -100954.49   -90708.934        248.8    20724    225737.04   -1.1168886   -23.508611   -55.680064    75.838009    433.20396    23.509989    22.164503    1.4356179    434.63958   -4648.1469 
   34500   -101017.65   -90723.531    249.97937    20724    225697.96   -81.341817   -78.535959   -58.627878   -106.86161    433.18629    23.508433    22.163036    1.4444526    434.63075   -4633.5175 
   34600   -100964.47     -90702.1    249.20819    20724    225748.86   -65.009804    34.707101    -176.5461   -53.190416    433.24051    23.509613    22.164148    1.4173454    434.65785   -4653.9598 
   34700   -100814.96   -90691.841    245.82675    20724    225627.51      4.12285    111.11455   -166.80046    68.054458    433.13332    23.506201    22.160931    1.4709421    434.60426   -4669.9362 
   34800    -100971.7   -90692.308    249.62171    20724    225799.09    51.867914    79.617399   -5.8819508    81.868292    433.26142     23.51166    22.166079    1.4068881    434.66831   -4671.1824 
   34900   -100854.32   -90653.603    247.71103    20724    225955.87   -22.442392   -26.086964    7.5070151   -48.747227    433.47815    23.513941    22.168228    1.2985245    434.77668   -4700.0516 
   35000    -100895.3    -90630.59     249.2652    20724    225892.05    40.274742   -77.581425    2.6580519     195.7476    433.52035    23.509476    22.164019    1.2774262    434.79777   -4729.2963 
   35100   -100845.17   -90636.503    247.90408    20724    225919.95   -16.770427   -59.934955    177.30778   -167.68411    433.19337    23.519799    22.173752    1.4409164    434.63428   -4722.5872 
   35200      -100907   -90640.954    249.29764    20724    226003.02    52.326723    74.148373    114.69938   -31.867584    433.41271    23.518169    22.172215    1.3312474    434.74395   -4719.1578 
   35300   -100890.31   -90658.562    248.46479    20724    226006.41   -19.020252    68.199547   -34.472618   -90.787683    433.61438    23.512876    22.167225    1.2304125    434.84479   -4699.1299 
   35400   -100951.02   -90600.211     251.3559    20724    226133.13    47.167991   -2.3513373   -102.17728    246.03259    433.77425    23.515133    22.169352    1.1504771    434.92472   -4757.2626 
   35500   -100792.07   -90613.238    247.17955    20724    226212.58    28.729869    146.44712    -238.2366    177.97908    433.96326    23.514141    22.168417    1.0559684    435.01923   -4740.1782 
   35600   -100957.76    -90602.73    251.45842    20724    226163.28   -98.575252   -37.641929   -111.85514   -146.22869    434.10759    23.507669    22.162316   0.98380573    435.09139   -4748.7382 
   35700   -100941.79   -90643.772    250.07398    20724    225989.55   -42.529315   -189.92617    94.520179   -32.181952    433.86144    23.505304    22.160086    1.1068808    434.96832   -4716.2289 
   35800   -100861.93   -90691.305    246.98042    20724    226112.97    39.904951    38.893466   -60.588412     141.4098    433.98988    23.508242    22.162856    1.0426619    435.03254   -4670.5314 
   35900   -100874.31   -90664.359    247.93535    20724    226087.36     25.98659    -96.03314    39.355045    134.63786    433.94111    23.508232    22.162846    1.0670471    435.00815   -4697.3617 
[...]
  491300   -93651.433   -80936.082    308.77574    20724    221172.42   -20.284992   -80.050116   -15.162106    34.357246    422.53968    23.562911    22.214396    6.7677578    429.30744   -22084.825 
  491400   -93723.077   -80954.918    310.05811    20724    221251.15   -27.021129    33.433797    15.896898   -130.39408    422.96066    23.555374     22.20729    6.5572685    429.51793   -22065.111 
  491500   -93575.373   -80972.446    306.04565    20724    220975.37    3.9937516    45.640761   -78.738062    45.078555    423.54301      23.5245    22.178183    6.2660937    429.80911   -22060.769 
  491600   -93650.924   -81024.898    306.60659    20724     220655.6    84.561225    72.692269    274.58716   -93.595754    422.94438    23.524102    22.177809    6.5654108    429.50979   -22028.185 
  491700   -93684.791   -80988.679    308.30855    20724    220751.43    9.6960648    36.781264    120.35423    -128.0473    422.44251    23.543182    22.195796    6.8163434    429.25886   -22059.694 
  491800   -93686.715   -80982.979    308.49368    20724    220675.85    -131.3018   -276.66115   -382.02019    264.77594    422.20237    23.545845    22.198307    6.9364132    429.13879   -22063.894 
  491900     -93666.7   -80979.394    308.09469    20724    220887.04   -49.798771   -162.75556   -23.074879    36.434123    422.24743    23.555852    22.207742    6.9138834    429.16132   -22064.889 
  492000   -93736.288   -81005.776     309.1439    20724    220595.87   -11.275679   -237.55733    121.06737     82.66292    421.62847    23.557595    22.209384    7.2233669    428.85183   -22054.729 
  492100    -93754.04   -80969.218    310.46275    20724     220798.3   -43.140835   -106.25006   -143.97401    120.80157    421.38377    23.575243    22.226022    7.3457139    428.72949   -22083.596 
  492200     -93691.7   -80982.031    308.63775    20724    220882.32   -51.391187   -220.50287     29.07632    37.252993    421.15362     23.58617    22.236324    7.4607909    428.61441   -22069.875 
  492300   -93793.834    -80945.29    312.01017    20724    220907.37   -21.133851   -98.142854     348.2234    -313.4821    421.33979    23.582296    22.232671    7.3677068    428.70749    -22110.36 
  492400   -93757.363   -80925.276    311.61052    20724    220916.24   -79.118563    5.6892046    -39.45934   -203.58555    421.40614    23.580913    22.231368    7.3345301    428.74067   -22126.803 
  492500   -93691.594   -80899.981    310.62766    20724    221159.27   -115.04382    57.351162   -108.06136   -294.42126    421.60633    23.588277    22.238311    7.2344339    428.84077   -22142.119 
  492600   -93695.504   -80926.622    310.07565    20724    220991.75    5.3088739    365.25783   -199.89061    -149.4406    421.82757    23.573158    22.224057    7.1238163    428.95138   -22127.907 
  492700    -93557.88   -80897.413    307.44295    20724    220719.35   -16.776528   -12.625969    -34.33125    -3.372365    421.54884    23.566412    22.217697    7.2631797    428.81202   -22167.847 
  492800   -93653.918   -80919.935    309.22818    20724    221283.92     251.0226    310.69917      428.573    13.795614    421.79978    23.589513    22.239475    7.1377102    428.93749   -22141.077 
  492900   -93634.239   -80961.597    307.73861    20724    220513.91   -63.022452    75.077759   -150.69118   -113.45393    421.45654    23.558021    22.209786    7.3093297    428.76587   -22117.717 
  493000    -93703.95   -80957.828    309.52296    20724    220609.16    67.794714    1.5338342    188.46876    13.381547    421.87792    23.551338    22.203485    7.0986378    428.97656   -22126.454 
  493100   -93559.747   -80918.987     306.9644    20724    221170.52   -58.301968   -124.37852   -64.947457    14.420075    422.93545    23.551783    22.203905    6.5698729    429.50533   -22142.171 
  493200   -93615.219   -80947.479    307.61957    20724    220891.82   -37.776606    49.725314    147.93381   -310.98895    422.45684    23.550268    22.202477    6.8091789    429.26602   -22127.514 
  493300   -93554.113   -80870.699     308.0002    20724     221144.3   -29.253284     113.8897    35.979276   -237.62883    422.68302    23.557418    22.209218    6.6960875    429.37911   -22195.908 
  493400   -93647.997   -80884.862    309.93611    20724    220993.07   -6.8923498    79.364444     98.20996   -198.25145    422.38655    23.557625    22.209413    6.8443273    429.23087   -22189.005 
  493500   -93724.056    -80881.69    311.86013    20724    221079.97     15.43481   -7.4928706   -29.424568    83.221869    423.00682    23.544975    22.197487    6.5341904    429.54101   -22195.328 
  493600   -93728.678   -80966.394    309.91544    20724    221062.73    21.739407     41.12344   -102.15241    126.24719    423.10674    23.541277       22.194    6.4842308    429.59097   -22111.145 
  493700   -93640.719   -80938.111    308.46627    20724    221324.86    159.79954    287.84274   -57.406747    248.96264     423.3492    23.548483    22.200794    6.3629983     429.7122   -22136.022 
  493800   -93696.691    -80942.88    309.70967    20724    221108.68   -68.811412   -143.45191   -76.514766    13.532438    423.11366     23.54353    22.196125     6.480769    429.59443   -22130.161 
  493900   -93541.784   -80899.734     306.9957    20724    221062.38    97.939804   -92.974093    99.131384    287.66212    422.92408    23.546341    22.198774    6.5755603    429.49964   -22183.839 
  494000   -93627.072   -80844.056    310.41888    20724    221097.52   -27.268798    225.75084   -370.76945    63.212215    423.26777     23.53865    22.191524    6.4037156    429.67148    -22234.11 
  494100    -93628.33   -80853.322    310.22443    20724    220930.43     73.97742    87.603936   -119.46121    253.78953    422.80615    23.542595    22.195243    6.6345248    429.44068    -22238.58 
  494200   -93553.241    -80837.35    308.78885    20724    221267.38    14.595307    174.56601   -35.969807   -94.810277     422.9151    23.557507    22.209301    6.5800523    429.49515   -22241.835 
  494300   -93565.922   -80851.824    308.74529    20724    221244.43    65.922284    164.05271   -118.74222    152.45636    422.78755    23.559838    22.211499    6.6438256    429.43137   -22233.356 
  494400   -93627.776   -80838.968    310.55956    20724    221093.71   -94.901245   -138.93982   -147.54897    1.7850567    422.57313    23.557786    22.209564    6.7510374    429.32416   -22245.008 
  494500   -93565.958   -80807.935    309.81197    20724    221047.26    17.553648   -52.917045    309.01498   -203.43699    422.39005    23.560416    22.212044    6.8425755    429.23262   -22286.027 
  494600   -93583.601   -80809.079    310.21261    20724    221375.14   -10.671489   -1.3151527    -17.40372   -13.295593    422.68878     23.56955    22.220655    6.6932116    429.38199   -22271.486 
  494700   -93543.077   -80837.459    308.53938    20724    221118.38   -56.745485   -128.22583    90.244111   -132.25474    422.38999    23.564207    22.215618    6.8426046     429.2326   -22252.841 
  494800   -93575.534   -80872.339    308.48053    20724    221072.65    5.0948204    -7.515708   -104.53364    127.33381    422.50439     23.55858    22.210313    6.7854033     429.2898   -22222.573 
  494900   -93750.649   -80884.199    312.44497    20724    221298.17   -73.444587   -192.02785    24.234715   -52.540632    422.47444    23.571428    22.222426    6.8003783    429.27482   -22203.931 
  495000   -93549.389   -80886.072    307.51215    20724    221317.03    23.936083    100.58925    47.798013   -76.579012    422.44504    23.573253    22.224146    6.8150789    429.26012   -22205.561 
  495100   -93711.827   -80866.917    311.92189    20724    221218.32   -46.789662   -14.190847   -93.919247   -32.258892    422.55958    23.564801    22.216178    6.7578121    429.31739     -22226.5 
  495200   -93637.424   -80811.263    311.46661    20724    221650.39   -9.8157005    110.35947    -1.578004   -138.22856    423.05653    23.573945    22.224798    6.5093356    429.56586   -22271.546 
  495300   -93671.237   -80812.481    312.25813    20724    221714.21   -69.269786   -86.238086     36.19962   -157.77089     423.0041      23.5788    22.229375    6.5355518    429.53965   -22266.404 
  495400   -93566.512   -80840.854    309.02603    20724    221819.01    20.550994   -187.26662    162.92294    85.996667    422.74558    23.591581    22.241426    6.6648077    429.41039   -22236.907 
  495500    -93653.81   -80859.716    310.68791    20724    221669.83    18.444179    59.358338   -125.81395    121.78815    422.65187    23.586262    22.236411    6.7116669    429.36353   -22227.407 
  495600   -93623.546   -80875.652      309.566    20724    221610.54   -135.63232   -161.28037   -305.95786    60.341279    422.89052    23.576451    22.227162    6.5923379    429.48286   -22209.009 
  495700   -93743.464   -80895.551    311.99484    20724    221711.06    19.101219   -177.89204    316.54525    -81.34955    422.96949    23.579597    22.230127    6.5528558    429.52234     -22195.9 
  495800   -93703.111   -80907.064    310.73534    20724    221574.87   -19.532614    78.239267    109.77147   -246.60858     422.8869    23.574656    22.225469    6.5941516    429.48105   -22188.459 
  495900   -93643.261   -80884.927     309.8195    20724    221817.89    4.9406586   -154.66018   -163.74076    333.22292    423.04725    23.583109    22.233438    6.5139744    429.56123       -22205 
  496000   -93658.339   -80879.662    310.31354    20724    221700.31  -0.35700824     44.11241    39.588096    -84.77153    422.84288    23.582555    22.232916    6.6161621    429.45904   -22214.991 
  496100   -93669.135    -80869.27    310.82804    20724    221772.97    74.758949    69.087271    56.231774    98.957803    422.87336    23.585569    22.235758    6.6009202    429.47428   -22227.521 
  496200   -93736.724   -80848.247    312.97986    20724    221442.35     39.86103    141.39975   -124.20947    102.39282    422.66042    23.573918    22.224773    6.7073902    429.36781   -22261.152 
  496300   -93665.917   -80901.695     309.9625    20724    221289.29   -67.595774   -169.78945    198.88474    -231.8826     422.4214    23.572436    22.223376    6.8269003     429.2483   -22211.871 
  496400   -93702.486   -80827.287    312.65745    20724    221430.58   -80.771551   -32.919616   -51.846217   -157.54882    422.22585    23.585419    22.235616     6.924673    429.15053   -22282.902 
  496500   -93515.916   -80828.094    308.10723    20724    221666.47   -122.66113   -32.150217    -230.7945   -105.03868    422.15488    23.599963    22.249327    6.9601611    429.11504    -22270.93 
  496600   -93652.758   -80844.869     311.0229    20724    221852.71   -20.414138    17.988309   -470.45172    391.22099    422.26552    23.606781    22.255755    6.9048397    429.17036   -22256.936 
  496700   -93625.124   -80839.568    310.48057    20724    221713.82    31.088946   -112.21467     328.4326   -122.95109    422.60752    23.589839    22.239783    6.7338381    429.34136   -22268.998 
  496800   -93481.206   -80796.435    308.03312    20724     221315.6   -16.733339    20.132361   -142.94472    72.612338    422.69672    23.566159    22.217458    6.6892422    429.38596   -22327.673 
  496900   -93525.951   -80787.035    309.34797    20724    221903.96   -6.6469385   -105.36654    75.005833    10.419891    423.40733    23.577652    22.228293    6.3339357    429.74126   -22317.464 
  497000   -93419.222   -80818.604    305.98961    20724    221435.85    183.74177    153.61255    60.537273     337.0755    423.15637    23.559753    22.211419    6.4594172    429.61578   -22313.981 
  497100   -93524.098   -80757.111    310.02963    20724    221658.34    66.442607    36.105522   -120.60887    283.83117    423.10275     23.57308    22.223983    6.4862232    429.58898   -22366.545 
  497200    -93687.86    -80765.18    313.81045    20724       221849   -90.596198   -31.768657   -271.28144    31.261497    423.03816    23.585016    22.235236    6.5185213    429.55668   -22344.616 
  497300   -93584.895   -80769.925    311.19486    20724     221687.5    75.231076    198.64511   -57.616032    84.664153    422.85487    23.581539    22.231958    6.6101641    429.46504   -22355.029 
  497400   -93520.541   -80753.219    310.03779    20724    221597.05    9.2580182    209.10982   -23.101027   -158.23474     422.7741     23.57898    22.229546    6.6505511    429.42465   -22372.164 
  497500   -93547.209   -80761.049    310.49525    20724    221820.11   -121.06755   -116.14772    197.81396   -444.86889    423.41677    23.572935    22.223846     6.329215    429.74599   -22352.203 
  497600   -93569.547   -80743.874    311.45476    20724    221816.34    -38.82993   -121.76023    172.69476   -167.42433    423.26803    23.576875    22.227561    6.4035873    429.67161   -22375.493 
  497700   -93675.887   -80751.096    313.86173    20724    221830.41   -100.07942    64.733389    64.616555   -429.58821    423.13271    23.581393    22.231821    6.4712472    429.60395   -22365.754 
  497800   -93471.261    -80776.17    308.28373    20724    221751.33    93.357765   -105.19088    282.55412    102.71006    423.54641    23.565672    22.216999    6.2643951     429.8108   -22352.498 
  497900   -93534.196   -80793.232    309.39771    20724    221676.94   -84.802449   -35.393163   -11.978567   -207.03562    423.41986     23.56524    22.216592    6.3276721    429.74753   -22334.666 
  498000   -93531.425   -80778.286    309.69337    20724    221674.07    7.8506748    1.9762526    -95.18892    116.76469    423.58132    23.560595    22.212213    6.2469389    429.82826    -22355.92 
  498100   -93668.177   -80814.246    312.14096    20724    221630.39    89.520655    150.97003    48.382302    69.209628    423.28925      23.5664    22.217686    6.3929739    429.68223   -22327.664 
  498200   -93532.157   -80815.127     308.8165    20724     221756.7     -54.0929   -78.985486    121.28518    -204.5784    423.19659    23.575695    22.226449    6.4393044     429.6359   -22314.602 
  498300   -93534.407   -80780.185    309.71966    20724    221950.44    83.129557    235.68247    68.356081   -54.649883    423.37041    23.581149    22.231591    6.3523938    429.72281   -22350.859 
  498400   -93443.314   -80748.183    308.28473    20724    221870.37   -40.210933    13.716998    -185.5041    51.154307    423.24882    23.580282    22.230773    6.4131901    429.66201   -22379.341 
  498500   -93641.751   -80785.106    312.20689    20724    221732.34   -58.802482   -64.982548   -59.307867   -52.117032    423.33196    23.570631    22.221674    6.3716199    429.70358   -22352.401 
  498600   -93576.959    -80819.05     309.8092    20724    221817.55    114.51846   -53.909173    243.62741    153.83713    423.21967    23.578287    22.228892    6.4277671    429.64743    -22323.61 
  498700   -93530.788   -80794.938    309.27353    20724     221608.9    14.822219   -144.66578    236.20193   -47.069495     422.8279     23.57811    22.228725    6.6236486    429.45155   -22354.219 
  498800   -93625.622   -80762.464    312.36504    20724    221751.92    57.228459   -39.878304    217.70438   -6.1406947    423.14116    23.576985    22.227665    6.4670194    429.60818   -22383.859 
  498900   -93507.269   -80741.085    310.01015    20724    222031.65    40.997148   -121.09188    235.93479    8.1485397    423.57639    23.579728    22.230251    6.2494071    429.82579   -22396.473 
  499000   -93594.887   -80757.698    311.73443    20724    221658.59   -44.791828   -37.857238   -2.8571068   -93.661139    423.35523    23.566063    22.217368    6.3599855    429.71521   -22390.028 
  499100   -93456.706   -80752.218    308.51194    20724    222078.62    37.385945   -162.92364    163.72526    111.35621    423.46464    23.585333    22.235535     6.305279    429.76992   -22386.917 
  499200   -93662.606   -80735.377    313.92091    20724     221930.6   -106.99334   -51.750426   -179.93499   -89.294591     423.6162    23.573253    22.224147    6.2295012     429.8457     -22403.8 
  499300   -93586.645   -80769.492    311.24786    20724    221719.19   -50.395711   -192.07084   -22.403257    63.286969    423.33119    23.569953    22.221035    6.3720046     429.7032   -22382.854 
  499400   -93504.743   -80793.167    308.68407    20724    221165.04   -24.783518     29.07084    38.799413   -142.22081    423.06416    23.547908    22.200252    6.5055183    429.56968   -22383.174 
  499500    -93582.27   -80775.998    310.98365    20724     221220.6   -4.9760674   -113.00466     38.73859    59.337873    422.90014    23.555433    22.207346    6.5875282    429.48767   -22400.298 
  499600   -93569.001    -80785.93    310.42022    20724    221004.68   -58.890811   -134.55072   -508.10645    465.98473    422.49544    23.555208    22.207134    6.7898787    429.28532    -22396.48 
  499700   -93578.807   -80760.883    311.26659    20724    221161.27     15.90136   -230.45392   -111.29714    389.45514    422.51999    23.562866    22.214354    6.7776036     429.2976   -22421.713 
  499800    -93471.98   -80776.401    308.29559    20724    221094.11   -26.223333    64.260386    71.729117    -214.6595    423.08651     23.54351    22.196106    6.4943463    429.58085   -22409.136 
  499900   -93552.718   -80773.679    310.32233    20724    221259.04   -47.604133   -42.359107   -26.607916   -73.845374    422.99355    23.554878    22.206823    6.5408274    429.53437   -22406.025 
  500000    -93441.95   -80791.279    307.20507    20724    221249.74   -24.710551    184.54582   -326.82639    68.148914    423.03317     23.55328    22.205316    6.5210132    429.55419   -22390.179 
Loop time of 52647.8 on 32 procs for 500000 steps with 20724 atoms

Performance: 1.641 ns/day, 14.624 hours/ns, 9.497 timesteps/s
97.3% CPU use with 32 MPI tasks x no OpenMP threads

MPI task timing breakdown:
Section |  min time  |  avg time  |  max time  |%varavg| %total
---------------------------------------------------------------
Pair    | 6501       | 9221.4     | 13167      |2520.5 | 17.52
Bond    | 0.39315    | 0.46212    | 0.59755    |   7.6 |  0.00
Kspace  | 8013.2     | 11974      | 14709      |2224.8 | 22.74
Neigh   | 8606.4     | 10826      | 12758      |1497.7 | 20.56
Comm    | 431.19     | 3866.3     | 7968.7     |4407.3 |  7.34
Output  | 3.5223     | 47.729     | 76.034     | 369.4 |  0.09
Modify  | 13135      | 16674      | 22195      |2466.4 | 31.67
Other   |            | 38.93      |            |       |  0.07

Nlocal:    647.625 ave 697 max 591 min
Histogram: 1 1 3 7 8 1 1 2 3 5
Nghost:    7196.53 ave 7816 max 6622 min
Histogram: 5 4 7 2 0 2 0 1 5 6
Neighs:    238009 ave 269923 max 208347 min
Histogram: 1 3 8 8 0 1 0 2 4 5
FullNghs:  476019 ave 541489 max 416795 min
Histogram: 1 3 8 8 0 1 0 3 3 5

Total # of neighbors = 15232622
Ave neighs/atom = 735.023
Ave special neighs/atom = 2
Neighbor list builds = 500000
Dangerous builds not checked
write_data production.R1
PPPM initialization ...
  extracting TIP4P info from pair style
WARNING: Using 12-bit tables for long-range coulomb (../kspace.cpp:316)
  G vector (1/distance) = 0.345896
  grid = 400 48 48
  stencil order = 5
  estimated absolute RMS force accuracy = 0.000402056
  estimated relative force accuracy = 1.21078e-06
  using double precision FFTs
  3d grid and FFT values/proc = 67260 38400
write_restart restartproduction.R1
PPPM initialization ...
  extracting TIP4P info from pair style
WARNING: Using 12-bit tables for long-range coulomb (../kspace.cpp:316)
  G vector (1/distance) = 0.345896
  grid = 400 48 48
  stencil order = 5
  estimated absolute RMS force accuracy = 0.000402056
  estimated relative force accuracy = 1.21078e-06
  using double precision FFTs
  3d grid and FFT values/proc = 67260 38400
Total wall time: 14:37:28
