LAMMPS (30 Jul 2016)
# Sets up LAMMPS simulation for transient melting of ice: TIP4P/Ice
# Ensure cold thermostats do not move
# Thinbox: 16x1x1
# Defects
# Order param l=2

#### setting MD parameters ####
units real
boundary p p p
atom_style full

# read ice box in restart file
### read the equilibrated NPT restart file

read_restart restart.state
  orthogonal box = (0.336684 0.0181679 0.0171282) to (435.739 23.513 22.1674)
  32 by 1 by 1 MPI processor grid
  20736 atoms
  13824 bonds
  6912 angles
  2 = max # of 1-2 neighbors
  1 = max # of 1-3 neighbors
  1 = max # of 1-4 neighbors
  2 = max # of special neighbors


#### force field definition ####
pair_style      lj/cut/tip4p/long 2 1 1 1 0.1577 10.0
pair_modify	tail yes

kspace_style	pppm/tip4p 1.0e-6

bond_style	harmonic
angle_style	harmonic
dihedral_style	none
improper_style	none

bond_coeff	1 450.0 0.9572
angle_coeff	1 55.0 104.52


# reset pair coeff
pair_coeff	* * 0.0 0.0

#OO
pair_coeff	2 2 0.21085 3.1668
#OH
pair_coeff	* 1 0.0000 0.0000

neighbor        2.0 bin
neigh_modify    every 1 delay 1 check no

timestep	2.0
fix		constraints all shake 0.000001 20 0 b 1 a 1
  0 = # of size 2 clusters
  0 = # of size 3 clusters
  0 = # of size 4 clusters
  6912 = # of frozen angles

group water type 1 2
20736 atoms in group water

#*********** SIMULATION PARAMETER TO ADJUST ****************
#Box dimensions
variable lx equal lx
variable ly equal ly
variable lz equal lz

### Temperature of the hot and cold regions ####
variable thi equal 375
variable tlo equal 215
variable runpressure equal 0.986923


# Configuration equilibrated in density and temperature

# Define dx here

variable lx equal lx
variable ly equal ly
variable lz equal lz

variable xlo equal xlo
variable xhi equal xhi

variable boxcentre equal ${xlo}+(${xhi}-${xlo})/2
variable boxcentre equal 0.336684330342479+(${xhi}-${xlo})/2
variable boxcentre equal 0.336684330342479+(435.738515669659-${xlo})/2
variable boxcentre equal 0.336684330342479+(435.738515669659-0.336684330342479)/2

variable dx equal 2.0

#### ADD IN DEFECTS AT THE CENTRE OF THE HOT THERMOSTAT #####
variable y1 equal ${ly}/2.0
variable y1 equal 23.494864128049/2.0
variable z1 equal ${lz}/2.0
variable z1 equal 22.1502436445533/2.0

region kill1 sphere ${boxcentre} ${y1} ${z1} 3
region kill1 sphere 218.037600000001 ${y1} ${z1} 3
region kill1 sphere 218.037600000001 11.7474320640245 ${z1} 3
region kill1 sphere 218.037600000001 11.7474320640245 11.0751218222766 3
delete_atoms region kill1 compress no bond yes mol yes
Deleted 12 atoms, new total = 20724
Deleted 8 bonds, new total = 13816
Deleted 4 angles, new total = 6908
############


variable thip equal ${thi}*2.0/3.0
variable thip equal 375*2.0/3.0
variable tlop equal ${tlo}*2.0/3.0
variable tlop equal 215*2.0/3.0
variable hbl equal ${boxcentre}-${dx}
variable hbl equal 218.037600000001-${dx}
variable hbl equal 218.037600000001-2
variable hbh equal ${boxcentre}+${dx}
variable hbh equal 218.037600000001+${dx}
variable hbh equal 218.037600000001+2

#***************************************************
## EQUILIBRATION PERIOD - to reach the steady state ###
#run 0

#reset the timestep to start your production run
reset_timestep 0

# define a group to perform averages
#group s1 type 1
###*** SYSTEM THERMOSTATTING: HOT and COLD regions ***###

fix NVE all nve
fix PRESS all press/berendsen aniso ${runpressure} ${runpressure} 500000 couple yz
fix PRESS all press/berendsen aniso 0.986923 ${runpressure} 500000 couple yz
fix PRESS all press/berendsen aniso 0.986923 0.986923 500000 couple yz


### Apply THERMOSTATS ###

#set up the "hot region" in the middle of the box
region hot block ${hbl} ${hbh} 0 ${ly} 0 ${lz} units box
region hot block 216.037600000001 ${hbh} 0 ${ly} 0 ${lz} units box
region hot block 216.037600000001 220.037600000001 0 ${ly} 0 ${lz} units box
region hot block 216.037600000001 220.037600000001 0 23.494864128049 0 ${lz} units box
region hot block 216.037600000001 220.037600000001 0 23.494864128049 0 22.1502436445533 units box


#set up the "cold region" at the left end of the box
#region cold block ${cbl} ${cbh} 0 ${ly} 0 ${lz} units box

#set up the "cold region" at the right end of the box
#region cold2 block ${h2bl} ${xhi} 0 ${ly} 0 ${lz} units box


#Cold regions  unification
#region cold union 2 cold1 cold2 units box

#Create group of cold molecules
####group cool_ice region cold
####group cool_ice include molecule

####compute cold_temp cool_ice temp
####fix cold_rescale water temp/rescale 1 ${tlo} ${tlo} 0.0001 1.0
####fix_modify cold_rescale temp cold_temp

#this calculates the temperature using only the atoms in the "hot region"
#compute hot_temp all temp/region hot

# calculate the temperature using only WATER in the "hot region"
compute hot_temp water temp/region hot

#this calculates the temperature using only WATER in the "cold region"
#compute cold_temp water temp/region cold


#set up a basic velocity rescale for the hot region WATER with thip
fix hot_rescale water temp/rescale 1 ${thip} ${thip} 1.0 1.0
fix hot_rescale water temp/rescale 1 250 ${thip} 1.0 1.0
fix hot_rescale water temp/rescale 1 250 250 1.0 1.0
#change the thermostat to only act on the "hot region"
#this is done by passing it the "hot temp" compute that we defined above
fix_modify hot_rescale temp hot_temp

#set up a basic velocity rescale for the cold region
#fix cold_rescale water temp/rescale 1 ${tlop} ${tlop} 1.0 1.0
#change the thermostat to only act on the "cold region"
#this is done by passing it the "cold temp" compute that we defined above
#fix_modify cold_rescale temp cold_temp

### Ensure MOMENTUM CONSERVATION ###

#ensure that linear momentum is conserved despite the "thermostatting" by velocity rescaling
fix cons_mom all momentum 1 linear 1 1 1


thermo 100
thermo_style custom step pe etotal temp atoms vol press pxx pyy pzz lx ly lz xlo xhi  f_hot_rescale

group ox type 2
6908 atoms in group ox
group hy type 1
13816 atoms in group hy
compute KE all ke/atom
variable TEMP atom c_KE*4186.8/(1.3806488*6.02214129)

compute cc1 all chunk/atom bin/1d x center 2 units box
#fix TPROFILE all ave/chunk 1 500 500 cc1 v_TEMP density/number file temp.dat
fix TPROFILEox ox ave/chunk 1 500 500 cc1 v_TEMP density/number file temp-ox.dat
fix TPROFILEhy hy ave/chunk 1 500 500 cc1 v_TEMP density/number file temp-hy.dat

compute orderparam ox orientorder/atom degrees 1 2 nnn 4 cutoff 3.5
compute cc2 ox chunk/atom bin/1d x center 2 units box
#fix ORDERPARAM all ave/chunk 1 500 500 cc2 c_orderparam[1] file order-param.dat
fix ORDERPARAM all ave/chunk 1 500 500 cc2 c_orderparam[1] file order-param.dat

restart 50000 config.restart

run 500000
PPPM initialization ...
  extracting TIP4P info from pair style
WARNING: Using 12-bit tables for long-range coulomb (../kspace.cpp:316)
  G vector (1/distance) = 0.345574
  grid = 405 48 48
  stencil order = 5
  estimated absolute RMS force accuracy = 0.000406475
  estimated relative force accuracy = 1.22409e-06
  using double precision FFTs
  3d grid and FFT values/proc = 67260 38880
Neighbor list info ...
  2 neighbor list requests
  update every 1 steps, delay 1 steps, check no
  max neighbors/atom: 2000, page size: 100000
  master list distance cutoff = 12.3154
  ghost atom cutoff = 12.3154
  binsize = 6.1577 -> bins = 71 4 4
Memory usage per processor = 12.7826 Mbytes
Step PotEng TotEng Temp Atoms Volume Press Pxx Pyy Pzz Lx Ly Lz Xlo Xhi hot_resc 
       0   -103835.37    -94999.64    214.56426    20724     226590.5   -17.541415    73.596979   -267.55108    141.32985    435.40183    23.494864    22.150244   0.33668433    435.73852            0 
     100    -103750.8   -94750.678    218.55634    20724     226359.8   -89.902898   -2.4356366    156.07824    -423.3513    435.33934    23.484586    22.140554   0.36792901    435.70727   -249.04344 
     200   -103734.17   -94719.092    218.91937    20724    226457.29   -51.732472    53.960279   -50.442876   -158.71482    435.37874     23.48858    22.144319   0.34822776    435.72697   -281.19549 
     300    -103600.5   -94670.785    216.84642    20724    226359.22    43.219284   -18.311801    25.378312    122.59134    435.26639    23.486524    22.142381   0.40440524    435.67079   -337.61737 
     400   -103652.18   -94590.222    220.05773    20724     226659.2   -17.408995   -12.640087    22.630678   -62.217576    435.55836    23.494203     22.14962   0.25842087    435.81678   -407.60738 
     500   -103571.91   -94539.454    219.34144    20724    226377.34   -32.702717    29.831638    60.577625   -188.51741    435.31993    23.486019    22.141905   0.37763418    435.69757   -466.28205 
     600   -103666.76   -94483.191    223.01109    20724    226461.22   -121.73915   -120.22126     51.61643    -296.6126      435.196    23.493714     22.14916   0.43959891     435.6356    -517.7015 
     700   -103476.21   -94412.946    220.08964    20724    226517.15  -0.54817602     -50.6259    102.68958   -53.708212    435.43101    23.490274    22.145916   0.32209404    435.75311   -592.40614 
     800   -103491.69   -94419.024     220.3179    20724    226426.48   -36.011127   -88.310422   -17.495389   -2.2275694    435.22732    23.491067    22.146664   0.42394145    435.65126   -586.18175 
     900   -103424.67   -94409.406    218.92395    20724    226434.65     53.69553    258.61344   -109.02926    11.502409    435.15209    23.493521    22.148978   0.46155621    435.61364   -601.03899 
    1000   -103421.44    -94352.15    220.23587    20724    226664.01    103.17053    261.76983   -224.49508    272.23684    435.43131     23.49788    22.153087   0.32194653    435.75325    -655.2697 
    1100   -103450.13   -94325.245    221.58582    20724    226573.52    17.694484    150.90807   -29.540081   -68.284537    435.39902     23.49406    22.149485   0.33809198    435.73711   -682.13983 
    1200   -103420.85     -94303.7    221.39804    20724     226586.4    12.335051    29.451533    114.20666   -106.65304    435.34233    23.496257    22.151557   0.36643594    435.70876   -703.27046 
    1300   -103413.54    -94252.83    222.45593    20724    226392.84    44.077572    71.966207    9.4317052    50.834805    435.17182     23.49082    22.146431   0.45169008    435.62351   -761.79039 
    1400   -103378.88    -94218.17    222.45589    20724     226577.3   -10.735086    91.867614    9.3171268      -133.39     435.2631    23.497924    22.153128   0.40604754    435.66915   -789.67992 
    1500      -103334   -94211.102    221.53771    20724    226504.47    32.748883    51.535726    110.23908   -63.528155    435.19628     23.49595    22.151268   0.43946024    435.63574   -801.58817 
    1600   -103287.98   -94195.107    220.80851    20724    226495.54    29.626676   -22.032808     48.91251    62.000325    435.18349    23.495832    22.151157   0.44585715    435.62934   -817.74083 
    1700   -103355.76   -94198.801    222.36483    20724    226405.21    51.255642    136.45228    100.59952   -83.284867    435.10875    23.493164    22.148641    0.4832245    435.59198   -818.98929 
    1800   -103310.33     -94132.8    222.86433    20724    226537.17   -18.372572     6.896901   -24.636178    -37.37844    435.18779    23.497876    22.153083   0.44370337     435.6315   -876.86583 
    1900   -103278.67   -94137.728    221.97591    20724    226433.05    77.967533    10.617262    64.960268    158.32507    435.31849    23.488948    22.144666   0.37835599    435.69684   -881.32185 
    2000   -103333.98   -94065.893    225.06339    20724    226460.51   -17.630391    43.748193    59.808532    -156.4479    435.19174    23.493793    22.149234   0.44173011    435.63347   -949.07965 
    2100   -103166.23    -94001.04     222.5648    20724     226603.6    29.454959   -54.992363     208.6143   -65.257058    435.26158    23.499328    22.154452    0.4068118    435.66839   -1012.8957 
    2200   -103361.33   -94010.693    227.06812    20724    226631.58   -56.156427   -63.328274   -5.8496071     -99.2914     435.2588    23.500854    22.155891   0.40819848      435.667   -1000.8324 
    2300   -103322.98   -94024.434    225.80308    20724    226437.17   -60.251195   -23.575185   -264.04855    106.87015    435.22827    23.491596    22.147163   0.42346657    435.65173   -990.56526 
    2400   -103185.22   -93940.801    224.48868    20724    226612.49   -2.8972446    42.350027    78.551289   -129.59305    435.47747    23.493964    22.149395   0.29886597    435.77633   -1072.4022 
    2500   -103148.73   -93931.738    223.82267    20724     226569.8    47.842829   -11.434101    24.244179    130.71841     435.2518     23.49784    22.153049   0.41170205     435.6635   -1086.1663 
    2600   -103174.68   -93878.024    225.75715    20724    226602.04    41.934722   -18.363758   -93.930172     238.0981    435.23742      23.4999    22.154991   0.41889201    435.65631   -1139.8462 
    2700   -103235.98   -93904.393    226.60553    20724       226541   -7.4985449    40.121833   -226.64495    164.02749    435.30974    23.494782    22.150167   0.38272803    435.69247   -1114.2071 
    2800   -103243.72   -93869.695    227.63599    20724    226644.33    -10.74178    6.8450654   -168.29796    129.22755    435.38216    23.498186    22.153375   0.34652088    435.72868   -1148.9237 
    2900   -103165.27   -93848.301    226.25034    20724    226480.69    11.048677    117.42985    88.745507   -173.02932    435.33553    23.490959    22.146562    0.3698331    435.70537   -1172.3103 
    3000   -103184.22   -93874.246    226.08072    20724    226655.25    20.960038   -6.7218038    199.09547   -129.49355    435.51752    23.495099    22.150466   0.27884134    435.79636   -1145.4764 
    3100   -103109.34   -93850.193     224.8464    20724    226806.76    79.914189    88.735465    306.80932   -155.80222    435.53896    23.502373    22.157322   0.26811921    435.80708   -1168.9963 
    3200   -103066.68   -93821.636    224.50377    20724    226697.33    78.906946    30.921832    86.212225    119.58678    435.28526    23.503549    22.158431    0.3949716    435.68023   -1199.4485 
    3300   -103125.01   -93834.542    225.60697    20724    226758.41    15.518426    63.269566    141.90903   -158.62332    435.43693     23.50262    22.157556   0.31913261    435.75607   -1182.7968 
    3400   -103206.24   -93817.711    227.98822    20724    226762.04   -85.209378   -181.38972    33.307649   -107.54607    435.42506    23.503129    22.158036   0.32506859    435.75013    -1197.179 
    3500   -103190.61   -93821.302    227.52143    20724    226741.32    43.933185   -74.041318    144.80823    61.032642    435.47759    23.500637    22.155686   0.29880302     435.7764    -1201.533 
    3600   -103117.29    -93809.66     226.0237    20724    226717.22   -14.371036     -116.873   -169.93388    243.69377    435.45177    23.500085    22.155166   0.31171636    435.76348   -1210.1363 
    3700   -103165.81   -93816.114    227.04523    20724    226680.44   -50.427076   -160.48213    5.2495566    3.9513507    435.47492    23.497554     22.15278   0.30013835    435.77506    -1204.464 
    3800   -103087.48   -93774.074    226.16384    20724     226744.7    67.086914    -73.66021    116.62197    158.29898    435.52971    23.499407    22.154526   0.27274615    435.80245   -1250.9413 
    3900   -103096.47    -93733.46    227.36839    20724    226848.98   -92.413076    -47.90184   -115.21072   -114.12667    435.56732    23.503795    22.158663   0.25393769    435.82126    -1281.322 
    4000   -103128.83   -93710.522     228.7113    20724    226627.09   -45.235126   -138.56137    60.774391   -57.918395     435.2435    23.501035    22.156061   0.41585075    435.65935   -1315.4236 
    4100   -103096.19   -93765.686    226.57917    20724    226754.25    2.5195431    46.759159   -28.562248   -10.638282    435.73367    23.494401    22.149807   0.17076653    435.90443   -1257.9163 
    4200   -103099.84   -93712.309    227.96407    20724    226601.58   -39.444726   -126.48481    77.354697   -69.204069    435.28241    23.498661    22.153823   0.39639671     435.6788   -1314.4055 
    4300   -103196.83   -93671.648    231.30654    20724    226671.03   -67.868076   -115.63923    208.65897   -296.62397    435.44751    23.497806    22.153017    0.3138466    435.76135   -1355.0623 
    4400   -103098.02   -93692.196    228.40831    20724    226516.44   -1.0089143   -18.888194    101.43811   -85.576658    435.43607    23.490101    22.145753   0.31956302    435.75564   -1340.3869 
    4500   -103051.22   -93698.595    227.11642    20724    226788.69    22.081702     55.90903   -9.5522183    19.888296    435.44984    23.503841    22.158707   0.31267752    435.76252   -1329.2819 
    4600   -103131.47   -93642.565    230.42575    20724     226416.9   -67.484524    -209.4754     19.45173   -12.429901    435.25711    23.489766    22.145438     0.409043    435.66616   -1392.7848 
    4700   -103025.12   -93634.406    228.04127    20724    226677.23     26.96689    30.632036   -87.990168     138.2588    435.65953    23.492409    22.147929   0.20783259    435.86737   -1398.0229 
    4800   -103000.62   -93655.879    226.92497    20724    226534.22    38.973435   -104.88252     94.18849    127.61433    434.98744    23.503133     22.15804   0.54388184    435.53132   -1382.0351 
    4900   -103102.96   -93632.299    229.98267    20724    226618.12   -50.723935   -118.82668    96.272742   -129.61787    435.19669    23.501833    22.156814   0.43925699    435.63594   -1402.6669 
    5000   -102920.46   -93624.127    225.74943    20724    226517.95   -3.0992391   -84.602452    264.57602   -189.27128    435.32855     23.49308    22.148561   0.37332551    435.70187   -1416.1136 
    5100   -102981.58   -93566.203    228.64007    20724     226624.6    57.293702    142.50706   -3.6647005    33.038742     435.4276    23.495937    22.151255   0.32379913     435.7514   -1474.1448 
    5200   -103092.91   -93604.828    230.40579    20724    226629.86   -118.76428    -121.4758   -202.78165   -32.035387    435.37667    23.497584    22.152808   0.34926741    435.72593   -1429.1174 
    5300   -102954.19   -93563.955    228.02971    20724    226535.58   -5.3596004   -59.227162   -108.34145    151.48981    435.19949    23.497477    22.152707   0.43785387    435.63735   -1476.4992 
    5400   -102983.02   -93545.275    229.18341    20724    226580.44   -76.016153   -106.44266   -5.0716539   -116.53414    435.37353    23.495106    22.150472    0.3508348    435.72437   -1491.4826 
    5500   -102907.52    -93514.56    228.09583    20724    226571.02    100.31624    50.898715    242.82195    7.2280467    435.30732    23.496404    22.151696   0.38394075    435.69126    -1530.437 
    5600   -102861.09   -93522.104    226.78514    20724    226379.78    22.416229    108.40503    218.51361   -259.66995    435.22318    23.488756    22.144485   0.42601085    435.64919   -1526.6013 
    5700   -103004.34   -93519.476    230.32747    20724    226561.22  -0.36625734   -152.21133     161.9239   -10.811344    435.00007    23.504193    22.159038   0.53756379    435.53764   -1525.9945 
    5800   -102938.55   -93485.148    229.56362    20724    226413.62    7.3180499   -57.126016    10.180236     68.89993    435.18503    23.491541    22.147111   0.44508546    435.63011   -1564.9882 
    5900   -102899.39   -93453.549    229.37996    20724    226585.67    13.587595   -44.971824   -37.066463    122.80107    435.05573    23.503957    22.158816    0.5097355    435.56546   -1593.1308 
    6000   -103005.06   -93424.345    232.65517    20724    226373.83   -88.968234    45.345678   -255.96348     -56.2869    435.03355    23.493566     22.14902   0.52082579    435.55437   -1624.1116 
    6100   -102891.42    -93386.04    230.82569    20724    226622.21   -65.662327   -334.59585   -71.771522    209.38039    435.31762     23.49878    22.153936   0.37878996    435.69641   -1656.9509 
    6200   -102866.04   -93357.224    230.90927    20724    226540.89    23.952409   -7.1932413    62.909477     16.14099     435.2653    23.495976    22.151292   0.40495029    435.67025   -1694.5683 
    6300   -102858.44    -93376.16    230.26485    20724    226670.35   -47.286581    88.282365    -115.0299    -115.1122    435.24391    23.503266    22.158165   0.41564395    435.65956   -1668.7646 
    6400   -102823.83    -93406.75    228.68157    20724    226624.65     48.07627    200.77292    42.931671   -99.475777    435.34185    23.498253    22.153439   0.36667406    435.70853   -1643.7868 
    6500   -102832.68   -93385.512    229.41224    20724    226732.05   -36.268902    19.617562   -89.102908    -39.32136    435.35408    23.503491    22.158376   0.36055947    435.71464    -1658.225 
    6600   -102770.65   -93350.989    228.74415    20724    226525.38    -12.38599    -68.61118     2.040171     29.41304    435.30912    23.493989    22.149419   0.38303806    435.69216   -1702.3521 
    6700   -102784.16   -93368.696    228.64216    20724    226624.42     61.42947    96.663671   -40.955325    128.58006    435.21422    23.501686    22.156675   0.43049152    435.64471   -1684.5835 
    6800    -102895.7   -93362.956    231.49027    20724    226474.67    -7.815124   -131.55172    200.54432   -92.437975    435.31319     23.49125    22.146836   0.38100465     435.6942   -1695.1423 
    6900   -102930.54   -93364.062    232.30949    20724    226759.87   -19.481693    49.483951   -179.43088    71.501852    435.50449    23.500873    22.155909   0.28535649    435.78984   -1686.3525 
    7000   -102850.84   -93322.007     231.3952    20724    226539.16   -100.18625    3.3303101   -34.628071   -269.26098    435.41316    23.491897    22.147446   0.33102062    435.74418   -1730.2169 
    7100    -102722.8   -93314.869    228.45929    20724    226516.31   -32.772561   -115.09591   -98.028415    114.80664    435.09834    23.499209     22.15434   0.48843244    435.58677   -1741.3403 
    7200   -102800.71   -93318.554     230.2619    20724    226853.98    58.971007    119.87237     53.74115    3.2995027     435.4181    23.508081    22.162704    0.3285508    435.74665   -1734.8855 
    7300   -102789.91   -93295.437    230.56098    20724    226643.29   -35.354254    50.297003    96.961259   -253.32102    435.31261    23.500009    22.155094   0.38129365    435.69391   -1760.6616 
    7400      -102724   -93256.771    229.89941    20724    226685.62    33.611728    46.271182   -126.77187    181.33587    435.39705    23.499924    22.155014   0.33907643    435.73612   -1801.8507 
    7500   -102698.38   -93272.239    228.90147    20724     226576.2    49.407761    20.388228    213.39956   -85.564501    435.12641    23.501557    22.156553   0.47439342    435.60081   -1789.9022 
    7600   -102738.65   -93281.811    229.64697    20724    226621.71    30.481263    5.2158532    16.309959    69.917977    435.29095    23.499475     22.15459   0.39212283    435.68308   -1781.0949 
    7700   -102730.39   -93285.556    229.35555    20724    226510.22    7.3210316    8.0045156   -46.034113    59.992692    435.24088    23.495045    22.150414   0.41716053    435.65804   -1779.1003 
    7800    -102713.7   -93226.557    230.38297    20724    226603.44   -2.5580901    6.6174627      108.802   -123.09373     435.3495    23.496947    22.152208   0.36285215    435.71235   -1836.4409 
    7900   -102729.86   -93247.707    230.26175    20724    226322.35   -18.050561    85.843706   -26.137237   -113.85815    434.93431    23.493575    22.149028   0.57044304    435.50476   -1823.8933 
    8000   -102834.15   -93209.543      233.721    20724    226656.61   -87.048306    70.277775   -7.4649324   -323.95776    435.39644    23.498437    22.153612   0.33937914    435.73582   -1850.6945 
    8100   -102694.86   -93192.257    230.75821    20724    226544.62    170.87438    118.11595    72.467147    322.04004    435.32893    23.494452    22.149855   0.37313612    435.70206   -1884.9301 
    8200   -102736.24   -93188.335    231.85838    20724    226663.01   -128.15227   -212.88047   -272.93131    101.35499    435.48957    23.496256    22.151556    0.2928156    435.78238   -1871.9146 
    8300   -102610.62   -93140.411    229.97159    20724    226500.07    50.611236    107.42956   -124.33593    168.74007    435.37264    23.490963    22.146565   0.35128079    435.72392   -1933.7296 
    8400   -102661.78   -93123.921    231.61443    20724    226548.01    12.052266   -69.742675     13.25036    92.649112    435.44076    23.491611    22.147177   0.31722085    435.75798     -1947.84 
    8500   -102612.15   -93092.605    231.16973    20724    226587.81   -64.961497    -57.44111   -60.677519   -76.765861    435.32071    23.496914    22.152176    0.3772428    435.69796   -1974.0472 
    8600   -102578.78   -93066.776     230.9866    20724    226506.48    82.353351    132.71934   -106.95602    221.29673    435.20956    23.495696    22.151028   0.43281786    435.64238   -2010.9288 
    8700    -102587.3   -93033.281    232.00691    20724    226477.47   -75.122599     -160.252    17.994803   -83.110606    435.14805    23.495852    22.151175   0.46357332    435.61163    -2036.019 
    8800   -102640.76   -93012.798    233.80242    20724    226552.83    11.203482     13.97663   -116.94303    136.57684    435.15895    23.499466    22.154583   0.45812402    435.61708    -2062.347 
    8900   -102641.84   -92982.889    234.55501    20724    226585.05    4.7479575    119.11841    21.766244   -126.64079    435.27596    23.497979     22.15318   0.39962056    435.67558   -2091.2572 
    9000   -102593.94   -92992.706    233.15346    20724    226493.03   -38.757977   -66.997149    94.651648   -143.92843    435.23216    23.494388    22.149795   0.42151753    435.65368   -2081.2264 
    9100   -102648.41   -93010.428    234.04585    20724    226489.56   -68.066328   -70.997742    110.26147   -243.46271    435.18238    23.495552    22.150892   0.44640896    435.62879   -2063.4033 
    9200   -102607.51   -92992.648    233.48433    20724    226460.59    22.701058  -0.27894649   -212.93858     281.3207    435.12296    23.495654    22.150988   0.47611933    435.59908   -2087.8268 
    9300   -102537.06    -92932.94    233.22355    20724    226507.88    1.9539514    18.712398    76.322529   -89.173073    435.15216    23.497318    22.152557   0.46152242    435.61368   -2144.5374 
    9400   -102510.02   -92892.197    233.55624    20724    226500.79   -69.246315   -81.068724   -80.782468   -45.887755     435.0083    23.500836    22.155874   0.53345187    435.54175    -2182.713 
    9500   -102491.33   -92862.063    233.83429    20724    226477.01    25.623761   -2.2699587    4.7071861    74.434057    435.08905    23.497421    22.152654   0.49307451    435.58213   -2220.1604 
    9600   -102440.62   -92844.758    233.02313    20724    226550.82    80.313361   -7.2346099     26.57269      221.602    434.96151    23.504695    22.159512   0.55684293    435.51836   -2238.2871 
    9700    -102485.3   -92812.972    234.87984    20724    226384.11   -63.620941   -15.406447    -40.97843   -134.47795    434.94924    23.496377     22.15167   0.56298104    435.51222   -2269.8758 
    9800   -102435.47   -92807.126    233.81181    20724    226561.07   -29.773899   -150.15414   -3.5731005    64.405547    435.04911     23.50286    22.157782   0.51304671    435.56215   -2273.3707 
    9900   -102443.19   -92814.544    233.81913    20724    226546.06   -13.484575   -25.869745   -9.2295247   -5.3544545    435.05051    23.502044    22.157012   0.51234474    435.56286   -2266.5588 
   10000   -102449.55   -92801.877    234.28109    20724    226505.06   -70.434172    74.563637   -102.00811   -183.85804    435.14327    23.497412    22.152646   0.46596264    435.60924   -2280.0964 
   10100   -102486.93   -92818.117    234.79459    20724    226491.77    93.577844     163.0539    70.519575    47.160062    435.06991    23.498704    22.153863   0.50264506    435.57255   -2275.5203 
   10200   -102362.62    -92771.95    232.89703    20724     226571.4    77.130302    177.75002    78.964934   -25.324042    434.98187    23.505212        22.16    0.5466673    435.52853   -2317.0045 
   10300   -102348.02   -92747.593    233.13383    20724    226442.43    62.080129    317.99245    34.201715   -165.95378    434.97114    23.498812    22.153965    0.5520307    435.52317   -2344.7621 
   10400    -102372.2   -92764.965    233.29919    20724    226566.41   -18.186906   -115.13918   -77.461264    138.03973    435.21904    23.498548    22.153717   0.42807771    435.64712   -2321.7424 
   10500   -102387.93   -92722.034    234.72363    20724    226641.59    35.035221    99.492981   -106.15897    111.77165    435.14265     23.50451    22.159337   0.46627501    435.60892   -2366.6543 
   10600   -102322.82   -92718.595    233.22606    20724    226533.18    26.504031   -119.10469    91.561799    107.05499    435.28164    23.495135    22.150499   0.39677855    435.67842   -2373.1374 
   10700   -102369.14   -92715.301    234.43084    20724    226657.79   -30.634568   -84.586374    53.453638   -60.770967    435.13077     23.50567    22.160431   0.47221444    435.60299    -2373.107 
   10800    -102310.9   -92714.521     233.0356    20724    226585.31    85.500657   -55.536643    128.84467    183.19394    435.15694    23.501205    22.156222   0.45912992    435.61607   -2381.7244 
   10900   -102402.07   -92723.605     235.0289    20724    226523.66    14.705086    21.576876    67.495389   -44.957007    435.15681    23.498011    22.153211   0.45919319    435.61601   -2370.7545 
   11000   -102508.64    -92723.94     237.6087    20724    226491.59   -22.972367   -21.209239   -143.53225    95.824386    434.99632    23.500682    22.155729   0.53943977    435.53576   -2370.8623 
   11100   -102416.85   -92721.684    235.43446    20724    226596.41   -8.5297921    42.097393   -184.67072    116.98395    435.21548      23.5002    22.155274   0.42986006    435.64534   -2371.5845 
   11200   -102389.37   -92719.555    234.81894    20724    226595.37    26.689937   -64.174105    85.066491    59.177424    435.02262    23.505355    22.160134   0.52628856    435.54891   -2378.6377 
   11300   -102367.22   -92693.618    234.91093    20724    226598.27    40.017632    -87.18053   -7.6168609    214.85029    435.12471    23.502747    22.157676   0.47524383    435.59996   -2404.1373 
   11400   -102417.35   -92649.794     237.1924    20724    226574.38   -149.95845    -134.3615    103.82729   -419.34114    435.16471    23.500429     22.15549   0.45524474    435.61996   -2441.4996 
   11500   -102346.29   -92665.247    235.09142    20724    226652.25    94.539756     175.1187    -182.9565    291.45707    434.99713    23.508993    22.163564    0.5390371    435.53616   -2437.7448 
   11600   -102442.63   -92657.784    237.61222    20724    226563.94    -44.39292   -27.429782   -160.65924    54.910261    434.92581     23.50634    22.161063   0.57469621     435.5005   -2442.2349 
   11700   -102320.59   -92677.085    234.17998    20724    226420.45    42.175007   -117.66059    198.64999     45.53562    434.80979     23.50203       22.157    0.6327056    435.44249   -2431.3612 
   11800   -102318.66   -92635.286     235.1481    20724    226449.73   -72.774053    -209.0886   -37.769567     28.53601    434.85322    23.502376    22.157326   0.61098847    435.46421   -2467.6382 
   11900   -102329.05   -92611.919    235.96799    20724    226487.87     4.386991   -81.785255   -34.629809    129.57604     434.9696    23.501211    22.156227   0.55279949     435.5224   -2494.1353 
   12000   -102299.54   -92617.349     235.1193    20724    226305.74    50.564108   -73.211601   -113.02246    337.92639     434.7678    23.497211    22.152456   0.65369787     435.4215    -2496.256 
   12100   -102223.02   -92594.668     233.8119    20724    226398.89    85.322219    59.809071    208.97121   -12.813619    434.65594     23.50507    22.159866   0.70962867    435.36557   -2519.6706 
   12200   -102315.47   -92630.505     235.1868    20724    226375.43     17.40532    41.828626    72.819685   -62.432351    434.75591     23.50115     22.15617   0.65964626    435.41555   -2481.7259 
   12300   -102368.69   -92624.306    236.62972    20724    226263.13   -78.729352   -13.367194   -163.85931   -58.961555    434.73833    23.495795    22.151121   0.66843636    435.40676   -2488.0909 
   12400   -102312.14   -92590.732    236.07178    20724    226395.89    51.376101    13.835758    215.90906   -75.616515     434.6425    23.505278    22.160061   0.71634859    435.35885   -2523.3162 
   12500   -102297.26   -92577.577    236.02979    20724    226258.92   -11.338974    121.73168    85.835913   -241.58452    434.72642    23.495898    22.151219   0.67439034    435.40081   -2537.9471 
   12600   -102361.13   -92540.801    238.47389    20724    226367.19   -43.533536   -19.253116    61.948061   -173.29555    434.62477    23.504268    22.159109   0.72521668    435.34998   -2573.3326 
   12700   -102306.11   -92518.741    237.67361    20724     226220.7   -27.368499    149.15889   -99.793623   -131.47076    434.55258    23.498613    22.153778   0.76130914    435.31389   -2599.9425 
   12800    -102193.2   -92522.311    234.84492    20724    226227.69    14.222997   -93.777893    216.58919   -80.142305    434.53492    23.499453     22.15457   0.77013782    435.30506   -2598.7195 
   12900   -102190.19   -92492.654    235.49192    20724    226216.67    50.493478    150.39506    17.338444    -16.25307    434.62347    23.496487    22.151774    0.7258646    435.34934   -2630.3889 
   13000   -102275.29   -92497.059    237.45168    20724    226341.88   -4.9332054    114.09162   -54.179234   -74.711998    434.64712    23.502349      22.1573   0.71403829    435.36116   -2622.4885 
   13100   -102200.21   -92524.072    234.97229    20724    226196.22     18.87341    67.694289     52.12378   -63.197838    434.49552    23.498884    22.154033   0.78983772    435.28536   -2600.6148 
   13200   -102161.28   -92494.014    234.75693    20724    226338.01    70.009556    48.551277   -35.001354    196.47875    434.44523    23.507608    22.162258   0.81498327    435.26022   -2629.7134 
   13300   -102188.59   -92454.997    236.36757    20724    226205.55     -24.9325    13.955405   -21.718194   -67.034712    434.67855    23.494421    22.149826   0.69832347    435.37688   -2669.1951 
   13400   -102284.46   -92466.397    238.41898    20724    226381.42   -73.810081    77.049317    63.803771   -362.28333    434.69553    23.503093    22.158002   0.68983396    435.38537   -2654.1205 
   13500   -102186.51   -92421.069    237.14098    20724    226496.08    74.086787    14.535388   -29.960625     237.6856    434.66327    23.509917    22.164435   0.70596402    435.36924   -2704.1181 
   13600   -102060.41   -92405.372    234.46012    20724    226322.49     -50.9693   -2.2204745   -183.53963    32.852206    434.75854    23.498331    22.153512   0.65833205    435.41687   -2717.7415 
   13700   -102162.98   -92425.155     236.4704    20724    226434.68    30.299143   -11.427221    5.3154311    97.009219     434.7013    23.505701    22.160461   0.68694755    435.38825   -2701.7827 
   13800   -102132.67    -92426.14    235.71037    20724    226438.92   -16.093768    138.25281    94.221121   -280.75523    434.71763     23.50548    22.160252   0.67878302    435.39642   -2698.2911 
   13900   -102111.04   -92412.691    235.51185    20724    226552.51   -19.875702    226.26523   -144.36336   -141.52898    434.75432    23.510383    22.164874   0.66044195    435.41476   -2709.1104 
   14000    -102194.7   -92442.607    236.81688    20724    226425.21   -10.507926   -83.575929    64.558022   -12.505871     434.7219    23.504653    22.159472   0.67665087    435.39855   -2684.5442 
   14100   -102124.96   -92394.298    236.29652    20724    226335.44    29.969064   -40.906319    239.43654   -108.62303    434.83921    23.496823     22.15209   0.61799397    435.45721   -2738.1562 
   14200   -102181.64   -92381.477    237.98431    20724    226452.87    33.305294   -20.257512    216.81409   -96.640696     434.8116    23.503664     22.15854    0.6318003     435.4434   -2751.0044 
   14300   -101982.64   -92321.111    234.61769    20724    226491.95   -11.997127    82.302622   -180.36767    62.073669    434.79981    23.506011    22.160752   0.63769306    435.43751   -2805.4269 
   14400   -102041.04   -92331.879    235.77441    20724    226466.86    61.271986     146.3026   -15.491943    53.005297     434.9359    23.501031    22.156058   0.56965116    435.50555   -2801.7549 
   14500   -101996.44   -92335.431    234.60499    20724    226403.24    5.7752917    13.205376    63.513582   -59.393082    435.01108    23.495699    22.151031   0.53205987    435.54314   -2797.8669 
   14600   -102039.72   -92316.398    236.11808    20724    226417.65   -61.607486   -321.78989    -220.5875    357.55494    434.62677    23.506833    22.161527   0.72421289    435.35099   -2815.9577 
   14700   -101988.16   -92256.442    236.32214    20724    226343.91      87.9905    112.85067   -164.12246    315.24329    434.84662    23.497062    22.152316   0.61428767    435.46091   -2886.5121 
   14800   -102070.55   -92290.304    237.50059    20724    226168.84    -46.96914   -18.663599    -287.3854    165.14158    434.82187    23.488642    22.144378   0.62666252    435.44854   -2851.1367 
   14900   -102040.45   -92265.667    237.36783    20724    226263.45   -81.576731   -11.457974   -334.98036    101.70814    434.87452    23.492133    22.147668   0.60034179    435.47486   -2874.4419 
   15000   -102062.68   -92229.011    238.79777    20724    226197.64    37.581231    184.21316   -219.79601    148.32654    434.56421      23.4971    22.152352   0.75549487    435.31971   -2918.6866 
   15100   -101957.77    -92216.46      236.555    20724    226244.16   -26.388828    7.7858998   -238.39842    151.44604    434.50726    23.501056    22.156082   0.78397001    435.29123   -2927.2812 
   15200   -102011.32   -92268.112    236.60107    20724    226037.74     69.55253    111.77931    51.732082      45.1462    434.56277    23.488833    22.144557   0.75621682    435.31898   -2888.0105 
   15300   -101950.58    -92206.37    236.62553    20724    226169.07     15.10694    35.696227    134.81521   -125.19062    434.43157    23.499203    22.154334   0.82181592    435.25338   -2944.6696 
   15400   -101954.46    -92171.37    237.56962    20724    226155.42   -9.6441388    39.332701     54.61717   -122.88229    434.12615    23.506758    22.161457   0.97452502    435.10067   -2980.0389 
   15500   -102060.51   -92177.811     239.9884    20724    226173.24   -18.335614   -144.34254   -181.10777    270.44347    434.18374    23.506125     22.16086    0.9457321    435.12947   -2975.2777 
   15600   -101877.35   -92192.412    235.18607    20724    226144.31   -1.7071758    132.53201   -64.250356   -73.403179    434.28198    23.501963    22.156936   0.89660989    435.17859   -2962.3824 
   15700   -101928.28   -92178.557    236.75941    20724     226218.3    47.008684   -8.7436825    188.71026    -38.94053    434.16105    23.509081    22.163647   0.95707625    435.11812   -2976.7961 
   15800   -101991.46   -92138.579    239.26449    20724    226156.64   -42.668218    135.69771    53.644503   -317.34686    434.10652    23.507353    22.162018    0.9843382    435.09086   -3015.1563 
   15900   -102014.47   -92126.294    240.12156    20724     226377.9   -26.851453   -224.09993    122.05478    21.490789    434.38745    23.511243    22.165685   0.84387342    435.23133    -3024.406 
   16000    -101910.2   -92137.181    237.32512    20724    226383.04   -64.422262    3.9108546   -287.77866    90.601015    434.38714    23.511519    22.165945   0.84402994    435.23117   -3012.1097 
   16100   -101823.71   -92085.392    236.48228    20724    226359.98    59.394524   -33.174968   -5.6703997    217.02894     434.4531    23.508536    22.163133   0.81104967    435.26415   -3070.0361 
   16200   -101885.67   -92089.418    237.88924    20724    226305.86   -96.233264    -145.0903    48.958875   -192.56837    434.58703    23.502103    22.157069   0.74408525    435.33111   -3061.2901 
   16300   -101802.17   -92040.386    237.05215    20724    226275.42    16.859399    107.45076    30.962736   -87.835303     434.5523    23.501462    22.156464   0.76144984    435.31375   -3117.7233 
   16400   -101968.35   -92081.084    240.09937    20724    226353.11   -74.179612   -96.023272   -125.32155   -1.1940097    434.59836    23.504251    22.159093   0.73842115    435.33678   -3073.3693 
   16500   -101851.68   -92049.337    238.03713    20724    226208.09    11.731174    71.591514    -21.06562   -15.332373    434.47675    23.500008    22.155093    0.7992242    435.27598   -3112.7851 
   16600   -101898.14   -92036.884    239.46771    20724    226419.98    69.458229    99.311822   -2.4355419    111.49841    434.55043    23.509018    22.163588   0.76238472    435.31282   -3122.9318 
   16700   -101887.67   -92051.071    238.86901    20724     226362.9   -21.991445   -42.098364    10.407837   -34.283809    434.44922    23.508793    22.163375   0.81298789    435.26221   -3107.0592 
   16800   -101901.54   -92030.231    239.71195    20724    226341.65    81.180438    -30.17255    200.95972    72.754142      434.232    23.513568    22.167878   0.92159873     435.1536   -3134.3695 
   16900    -101781.5   -91996.584     237.6139    20724    226229.44    36.978006     225.3916   -366.88164    252.42406    434.35973    23.504282    22.159123   0.85773426    435.21747   -3170.3426 
   17000   -101947.32   -92013.263    241.23567    20724    226542.97    14.775334   -45.369894    6.2685453    83.427351    434.50587    23.516608    22.170743   0.78466642    435.29053   -3145.6158 
   17100   -101878.91   -91977.273    240.44839    20724    226412.02   -21.093783   -48.288428   -21.725045    6.7321261    434.78844     23.50217    22.157131   0.64337944    435.43182   -3185.3564 
   17200   -101852.92   -91963.069    240.16223    20724    226481.02   -17.004911    73.256073   -195.05076    70.779956    434.85852    23.503857    22.158722   0.60834139    435.46686   -3196.6841 
   17300    -101853.3   -91985.503    239.62648    20724    226407.36   -49.205007   -30.331664   -222.68454    105.40118    434.65526    23.505528    22.160297   0.70997182    435.36523   -3177.5448 
   17400   -101814.22     -91975.9    238.91085    20724    226403.27     79.34037    -23.61093    54.859461    206.77258    434.76259    23.502414    22.157362   0.65630743    435.41889    -3194.184 
   17500    -101844.3   -91946.214    240.36219    20724    226513.52   -86.269212    51.605468    -238.0162   -72.396902    434.72699    23.509099    22.163663   0.67410457     435.4011   -3214.8088 
   17600   -101781.77   -91912.348    239.66594    20724    226621.08    -11.74502    222.53245   -92.987266   -164.78024     434.9894    23.507586    22.162237   0.54290158     435.5323   -3250.3059 
   17700   -101773.71   -91891.431     239.9783    20724    226435.77   -35.356302    49.140985    111.94437   -267.15426    434.74876    23.504475    22.159304   0.66321942    435.41198   -3276.0797 
   17800   -101774.55   -91905.719    239.65174    20724    226362.91    96.800051    159.88085     356.3128    -225.7935    434.87279    23.497342     22.15258   0.60120565    435.47399   -3271.2652 
   17900   -101727.56   -91895.979    238.74716    20724    226585.09    49.390356   -35.679381    132.57822    51.272231    435.14595     23.50149    22.156491   0.46462491    435.61058   -3272.4425 
   18000   -101813.41   -91912.859    240.42201    20724    226259.72   -28.131852    62.058087   -111.14606   -35.307589    434.99821    23.488598    22.144336   0.53849482    435.53671   -3263.9233 
   18100   -101703.99   -91916.491    237.67655    20724    226237.91   -90.253615   -293.97955   -158.67699     181.8957    434.79528    23.492947    22.148436    0.6399614    435.43524   -3258.5322 
   18200   -101856.52   -91884.135    242.16649    20724    226355.82      11.4062    99.219274   -66.259643    1.2589683    435.10566    23.490685    22.146303   0.48476893    435.59043   -3296.6035 
   18300   -101782.05   -91849.963    241.18785    20724    226230.32    9.1404093     105.6785   -294.89794    216.64067    434.95415    23.488262    22.144019   0.56052361    435.51468   -3334.0342 
   18400   -101768.55   -91869.434    240.38708    20724    226240.18   -25.101147   -57.962951   -254.10185    236.76136    434.55051     23.49968    22.154784   0.76234424    435.31286   -3312.9483 
   18500   -101783.22   -91891.193    240.21506    20724    226276.72   -2.4567618   -133.49664     153.8684   -27.742043    434.33738    23.507343    22.162009   0.86890906    435.20629   -3292.1146 
   18600   -101824.72   -91888.881    241.27881    20724    226137.27   -32.639059    282.17076   -24.782251   -355.30568    434.26553    23.502043    22.157011   0.90483707    435.17036   -3296.7622 
   18700   -101838.31   -91870.599    242.05275    20724    226249.66   -39.299433   -113.92703    413.05602   -417.02729    434.42761    23.503497    22.158382   0.82379608     435.2514   -3315.1649 
   18800   -101803.55   -91921.759    239.96653    20724    226127.11   -5.7478695   -56.301011    275.67539   -236.61799    434.18949    23.503573    22.158454   0.94285645    435.13234   -3269.1507 
   18900   -101788.45   -91897.893     240.1792    20724    225983.75   -67.275853   -39.370673    -109.8882    -52.56868    434.16904    23.496674     22.15195   0.95308171    435.12212   -3296.4392 
   19000   -101802.08   -91862.989    241.35797    20724    226144.37    10.292181    67.592268     30.32283   -67.038554    434.28872    23.501784    22.156768   0.89323762    435.18196   -3328.7053 
   19100   -101702.77   -91863.294    238.93889    20724     226380.3     123.9901    1.3386312    85.787458    284.84421    434.18277    23.516909    22.171027    0.9462148    435.12899   -3327.8822 
   19200   -101789.24   -91807.897    242.38398    20724    226182.97   -103.80159   -44.870346   -207.88169   -58.652741    434.19532    23.506318    22.161042   0.93994022    435.13526   -3380.2625 
   19300   -101620.84   -91843.339    237.43377    20724    226108.75    85.644116    93.155797   -140.75701    304.53357    434.26635    23.500538    22.155593   0.90442661    435.17077   -3356.7896 
   19400   -101828.54   -91837.609    242.61681    20724    226336.45    -102.7545   -295.44097   -9.7715747   -3.0509536    434.33628    23.510475    22.164962   0.86945894    435.20574   -3349.6972 
   19500   -101625.92   -91808.275    238.40878    20724    226312.02   -2.7917966    107.19926   -196.38293    80.808284     434.2571     23.51135    22.165786   0.90904951    435.16615   -3384.5636 
   19600   -101712.35   -91803.634     240.6203    20724    226354.42    88.718153    91.157759    144.85862    30.138074    434.35893    23.510796    22.165264   0.85813739    435.21706    -3394.606 
   19700   -101691.99   -91792.363    240.39942    20724    226252.11    13.728733    33.162133    31.754496   -23.730429    434.44248    23.503221    22.158122    0.8163587    435.25884   -3405.9021 
   19800   -101686.44   -91779.001    240.58925    20724    226219.41   -16.405218    29.444691   -74.270289   -4.3900541    434.55504    23.498479    22.153651   0.76007852    435.31512   -3420.5526 
   19900   -101578.11   -91768.917    238.20338    20724    226324.21    88.419789    26.317139    206.27291    32.669317    434.63091     23.50187    22.156849   0.72214463    435.35306   -3435.1572 
   20000   -101601.61    -91770.19    238.74327    20724    226366.01    39.532587   -25.073909    285.07652   -141.40485    434.62124    23.504302    22.159141   0.72698178    435.34822   -3429.6011 
   20100   -101621.96    -91791.81    238.71247    20724    226243.46    78.047032    214.09584   -35.363315    55.408567    434.36476    23.504875    22.159681   0.85521801    435.21998   -3415.8637 
   20200   -101742.52    -91781.83    241.88235    20724     226149.6   -47.121498   -57.723484    -285.2913    201.65029    434.44499    23.497828    22.153038   0.81510361     435.2601   -3424.3173 
   20300   -101682.55   -91808.405    239.78084    20724    226171.99   -3.8395654    92.538077    56.277575   -160.33435    434.29446    23.503064    22.157974   0.89036938    435.18483   -3397.6713 
   20400   -101707.98   -91772.696    241.26536    20724    226073.19   -13.741809   -47.755956    230.44151   -223.91098    434.33355    23.496872    22.152137   0.87082402    435.20438   -3437.5464 
   20500   -101735.75   -91760.196    242.24332    20724    226233.72    -55.20275   -85.916489   -8.3712813    -71.32048     434.1501    23.510179    22.164682   0.96255006    435.11265   -3444.6307 
   20600   -101689.84   -91748.682    241.40805    20724     226029.1    59.940198   -56.469184    23.105914    213.18386    433.97852    23.504189    22.159035    1.0483385    435.02686   -3468.2006 
   20700   -101658.69   -91743.585    240.77535    20724    226072.88    37.523689    83.456626    53.080242   -23.965801    434.11789    23.502692    22.157623    0.9786572    435.09654   -3471.6864 
   20800   -101716.88    -91708.57    243.03877    20724    225958.65   -82.604714    -161.9921   -170.71644    84.894399    433.99397    23.500108    22.155187    1.0406161    435.03458   -3506.9973 
   20900   -101732.92   -91719.063     243.1736    20724     225981.7    21.934566    186.95078    41.528382   -162.67546      433.902    23.503797    22.158665    1.0866015     434.9886   -3502.3961 
   21000   -101614.99   -91694.152    240.91455    20724    225912.66   -110.26274   -222.65324   -141.88533    33.750342    433.69021    23.505944    22.160689    1.1924948    434.88271   -3522.8337 
   21100   -101722.48   -91689.208    243.64488    20724    226013.25   -34.100306   -43.820385    12.150928    -70.63146     433.8771    23.506112    22.160848    1.0990505    434.97615   -3529.3061 
   21200   -101641.93   -91645.407     242.7525    20724     226005.5    1.7571701    79.869418    71.972567   -146.57047    433.83797    23.506769    22.161467    1.1186162    434.95658   -3575.8169 
   21300    -101572.7   -91652.966    240.88783    20724    225828.37   -46.058978   -29.889818   -166.83406    58.546941    433.96184    23.494202    22.149619    1.0566823    435.01852   -3571.5919 
   21400   -101618.19   -91609.601     243.0455    20724    225910.99    37.542103    62.380028   -110.76236    161.00864    433.78152    23.503383    22.158275    1.1468377    434.92836   -3617.7766 
   21500   -101546.33   -91631.695    240.76399    20724    225869.02    -17.21073    144.61177    -376.8009    180.55694    433.58087    23.506636    22.161342    1.2471648    434.82804   -3595.5095 
   21600   -101598.45   -91615.034    242.43432    20724    225916.84   -49.811777   -113.06118   -289.27183    252.89767    433.57947    23.509163    22.163724    1.2478631    434.82734     -3610.62 
   21700   -101671.62   -91617.182    244.15897    20724    225959.96    6.1180975    57.703676    1.2038102   -40.553193    433.70626    23.507969    22.162599    1.1844711    434.89073   -3611.8013 
   21800   -101644.18   -91636.403     243.0259    20724    225770.15   -35.101582    -123.8636    19.007442  -0.44858947    433.49212    23.503897    22.158759    1.2915414    434.78366   -3595.9052 
   21900   -101596.01   -91617.133    242.32396    20724    225991.88    66.103517    143.30828    340.06196   -285.05969    433.48427    23.515648    22.169838    1.2954628    434.77974   -3615.3698 
   22000   -101603.84   -91600.464    242.91905    20724    225840.52   -64.973043    40.478641    35.865743   -271.26351    433.50109    23.507316    22.161983    1.2870556    434.78814   -3630.6052 
   22100   -101594.46    -91588.77    242.97506    20724    225934.83   -80.523723   -244.94635    118.89869    -115.5235    433.63427    23.508613    22.163206    1.2204655    434.85473   -3639.5652 
   22200   -101605.02   -91586.099    243.29633    20724    225916.36    35.065819    237.21348    36.665829   -168.68185    433.70334     23.50578    22.160535    1.1859292    434.88927   -3650.0976 
   22300   -101485.01    -91575.84     240.6312    20724    225951.31    16.910687   -252.77629    49.413938    254.09441    433.58348    23.510847    22.165312    1.2458605    434.82934    -3658.989 
   22400   -101518.94   -91564.768    241.72411    20724    225901.26    75.448234    -4.676631     172.7112    58.310137     433.2908    23.516182    22.170341     1.392202      434.683    -3674.608 
   22500   -101547.26   -91570.969    242.26117    20724    225902.68    82.964011    26.425433    3.6482416    218.81836    433.27943    23.516564    22.170702    1.3978859    434.67731   -3670.4379 
   22600   -101628.67   -91557.842    244.55691    20724    225764.33   -5.4856819    156.87747   -48.556975   -124.77754    433.21151    23.511205    22.165649    1.4318451    434.64335   -3684.6783 
   22700   -101558.76   -91579.044    242.34434    20724     225685.5   -15.558873   -185.14472   -4.2093455    142.67744    433.22382    23.506766    22.161464    1.4256895    434.64951   -3665.4656 
   22800    -101535.3   -91569.173    242.01441    20724    225704.93    50.882631    1.0159754    5.6114203     146.0205    433.22623    23.507712    22.162357    1.4244866    434.65071   -3678.6092 
   22900   -101500.17   -91505.485    242.70785    20724    225956.48    51.662181    35.824203    56.638772     62.52357    433.52674    23.512655    22.167016    1.2742304    434.80097   -3737.7324 
   23000   -101532.08    -91526.82    242.96466    20724    225833.98    30.168533    131.30481    25.131148   -65.930356    433.56589     23.50522    22.160006     1.254657    434.82054   -3720.0941 
   23100   -101572.51   -91523.789    244.02011    20724    226061.22    43.710721    281.92674   -29.013486   -121.78109    433.55047     23.51746    22.171546    1.2623645    434.81284    -3719.453 
   23200   -101459.53   -91546.596    240.72261    20724     225941.2    86.660386    4.5135762    65.712726    189.75485     433.6036    23.509776    22.164302    1.2357983     434.8394   -3703.7938 
   23300   -101386.32   -91515.618     239.6971    20724    226226.86    122.53587    199.20559   -118.55281    286.95483    433.91902    23.516081    22.170246    1.0780882    434.99711   -3728.8195 
   23400   -101563.02   -91497.828    244.42005    20724    225983.44   -7.5844219    195.27831   -351.74745    133.71587    433.93136    23.503092    22.158001    1.0719205    435.00328   -3749.1609 
   23500   -101500.82   -91507.545    242.67378    20724    226043.87    44.380882   -26.365711    35.959961     123.5484    433.99376    23.504544     22.15937    1.0407193    435.03448   -3740.0481 
   23600   -101497.01   -91507.033    242.59355    20724    226138.25    64.342333    236.06056   -46.677708    3.6441446    433.92773    23.511239    22.165682    1.0737348    435.00147   -3740.5453 
   23700   -101490.71   -91506.632     242.4503    20724    226290.43     30.57844   -65.798703    196.46969    -38.93567    434.02677    23.516466    22.170609    1.0242154    435.05098   -3737.6795 
   23800   -101527.38   -91508.643    243.29191    20724    226292.61   -97.994257   -94.887397    176.86123    -375.9566    433.80065    23.522707    22.176493    1.1372742    434.93793   -3729.6059 
   23900   -101497.09   -91492.489    242.94878    20724    226114.95   -56.759662   -43.748164   -48.762652   -77.768169    433.82463    23.512822    22.167174    1.1252841    434.94992   -3754.1816 
   24000   -101456.52   -91490.732    242.00616    20724     226135.8     57.33898    187.26579    256.55737   -271.80622    433.73919    23.516221    22.170379    1.1680025     434.9072   -3761.4138 
   24100   -101561.15   -91526.344    243.68208    20724    226147.01   -24.202771    -121.7209    54.223624   -5.1110326    433.77918     23.51572    22.169906    1.1480102    434.92719   -3722.7831 
   24200   -101463.01   -91470.467    242.65587    20724    226062.29   -28.670668   -91.470811   -211.89832    217.35713    433.55147    23.517489    22.171573    1.2618673    434.81333   -3781.7454 
   24300    -101502.9   -91442.445    244.30515    20724    226001.55   -3.4065384     94.72716    128.56452    -233.5113    433.61873    23.512505    22.166875    1.2282373    434.84696   -3815.6699 
   24400   -101445.61    -91427.78    243.26994    20724    226101.59    1.2866162   -9.9783539    180.97436   -167.13616     433.9197    23.509551     22.16409    1.0777519    434.99745    -3826.949 
   24500   -101391.82   -91379.012    243.14796    20724    226038.44    29.988083    76.526102    91.617898   -78.179751    433.83687    23.508512     22.16311    1.1191643    434.95604   -3879.4193 
   24600   -101413.27   -91394.493    243.29299    20724    225974.25   -106.11102   -320.87483    106.74662   -104.20484    433.47586     23.51496    22.169189    1.2996703    434.77553   -3859.9626 
   24700   -101380.99   -91373.165    243.02697    20724    226222.28     11.47246   -116.25803     131.6008    19.074615    433.59867    23.524529    22.178211    1.2382642    434.83694   -3881.3837 
   24800   -101377.86   -91384.879    242.66641    20724    225921.33   -5.0219068     161.4423   -4.2321744   -172.27585    433.51749    23.511077    22.165529    1.2788546    434.79635   -3877.9279 
   24900   -101419.18   -91408.649    243.09276    20724    226093.13    92.876568    39.826121   -19.594443    258.39803    433.69318     23.51525    22.169463    1.1910083    434.88419   -3854.3899 
   25000   -101343.63   -91390.338    241.70277    20724    226111.86   -69.039355   -10.614568   -565.32175    368.81826    433.75328    23.514595    22.168845    1.1609609    434.91424   -3864.5331 
   25100    -101379.3   -91362.198    243.25233    20724    226188.38   -11.184489   -88.186155    80.741365   -26.108677    434.16562    23.507402    22.162064   0.95479017    435.12041    -3895.478 
   25200   -101334.42   -91343.697    242.61173    20724    226188.79    62.060381    100.89621    211.60035   -126.31542    433.96715    23.512799    22.167152    1.0540234    435.02118   -3916.4566 
   25300   -101353.96   -91305.062     244.0245    20724    226089.97   -37.386868    4.6112357    59.491574   -176.26341    433.89017    23.509747    22.164275    1.0925158    434.98268   -3954.1264 
   25400   -101473.03   -91330.542    246.29705    20724    226208.12   -17.243075    70.029715   -47.753211   -74.005729    434.18326    23.507951    22.162581   0.94597143    435.12923   -3930.0033 
   25500   -101393.31   -91364.115    243.54591    20724    226062.25   -33.570889    12.569905   -182.61382    69.331252    434.08276    23.503091    22.157999    0.9962206    435.07898   -3899.5147 
   25600   -101365.69    -91329.52    243.71522    20724     226203.7    36.542816    58.737016    159.77892   -108.88749    434.32671    23.503838    22.158704   0.87424413    435.20096   -3933.9466 
   25700   -101376.47   -91311.674    244.41038    20724    226209.01    9.3002292    125.53148    115.25176   -212.88256    434.56849    23.497575      22.1528    0.7533564    435.32184   -3951.7039 
   25800   -101265.87   -91274.827    242.61941    20724    226218.44   -64.664544   -198.14693   -78.631513     82.78481    434.42216    23.502022    22.156992   0.82651869    435.24868    -3984.433 
   25900   -101400.62     -91302.9    245.20991    20724    226426.49   -20.726428    161.05989   -134.32191   -88.917256    434.71016    23.505037    22.159834   0.68251934    435.39268   -3955.9672 
   26000   -101300.17   -91298.342    242.88139    20724    226251.79     -1.11918   -39.882628    176.87329   -140.34821    434.36854    23.505205    22.159993   0.85333119    435.22187   -3965.9938 
   26100   -101332.54   -91299.772    243.63281    20724    226421.34    74.874854     171.9958    38.481044    14.147716    434.61034    23.507469    22.162127   0.73242912    435.34277   -3964.8718 
   26200   -101327.55   -91255.649    244.58301    20724    226254.35   -20.714284   -137.58333    270.86682   -195.42635    434.45803    23.502917    22.157836   0.80858731    435.26661   -4010.4492 
   26300   -101375.68    -91270.94    245.38056    20724    226326.52   -93.580985     6.967607   -135.47222   -152.23834    434.36291    23.509239    22.163796   0.85614404    435.21906   -3989.8616 
   26400   -101323.28   -91277.402      243.951    20724    226413.18     79.53425    7.2262156    112.59654       118.78     434.3427    23.514287    22.168554   0.86625242    435.20895   -3991.6402 
   26500   -101336.86   -91260.435    244.69275    20724     226395.6    30.549304   -231.95621   -20.029285    343.63341    434.40597    23.511661    22.166079   0.83461517    435.24058   -4005.8004 
   26600   -101363.04   -91279.891    244.85607    20724    226243.59    18.764686    78.706429    49.558369   -71.970739     434.3048    23.506504    22.161218   0.88520134       435.19   -3994.3784 
   26700   -101373.95   -91222.231    246.52137    20724    226274.47   -66.669216   -204.68042     57.39656   -52.723789    434.39633    23.505631    22.160394     0.839433    435.23577   -4046.4431 
   26800   -101393.07   -91238.014    246.60227    20724    226291.15   -30.793207   -208.81582    52.052739    64.383454    434.31359    23.508737    22.163322   0.88080615    435.19439   -4034.4555 
   26900   -101311.74    -91205.93    245.40647    20724    226145.23    75.051411    10.256138    126.13314    88.764951    434.26619    23.502438    22.157384   0.90450588    435.17069   -4075.7321 
   27000    -101457.8   -91241.072    248.09993    20724    226099.38   -48.643887   -23.676195   -91.329596   -30.925869    433.93068    23.509139    22.163701    1.0722585    435.00294   -4036.9646 
   27100   -101391.55    -91235.86    246.61772    20724    226041.81    40.888504   -111.18658    77.175443    156.67665    433.82904    23.508899    22.163475    1.1230789    434.95212   -4050.2915 
   27200   -101383.77   -91190.159    247.53861    20724    226104.98   -21.810311   -54.977124   -144.10546    133.65165    433.82955     23.51217    22.166559    1.1228241    434.95238   -4090.9579 
   27300   -101324.19   -91185.752    246.19881    20724    226295.02    43.865638    92.860698    104.27389   -65.537673    433.86534    23.521079    22.174958    1.1049318    434.97027   -4094.2562 
   27400   -101366.92   -91194.766    247.01742    20724     226275.6   -84.003553   -105.14209   -150.71859    3.8500225      434.078    23.514307    22.168574   0.99859838     435.0766   -4081.9018 
   27500   -101165.37   -91200.154    241.99232    20724    226212.12    141.01964   -68.815776    120.94868    370.92602    433.82962    23.517738    22.171809    1.1227914    434.95241   -4087.5414 
   27600    -101267.6    -91205.05    244.35602    20724    226088.84    8.4828789    199.48173   -97.370161   -76.662929    433.76477    23.513086    22.167423    1.1552138    434.91999   -4083.0124 
   27700   -101271.51   -91200.747    244.55531    20724    226050.33    35.530564    110.42874  -0.61178838   -3.2252556    433.39647    23.521071    22.174951    1.3393639    434.73584   -4090.6286 
   27800   -101343.56   -91157.896    247.34558    20724    226209.61   -61.887689   -238.44748    102.02472    -49.24031    433.36522    23.530205    22.183562    1.3549905    434.72021   -4124.9414 
   27900   -101278.26   -91123.927    246.58465    20724    225875.05   -19.404573    55.714971    23.055638   -136.98433    433.31476    23.514167    22.168442    1.3802219    434.69498   -4172.2888 
   28000   -101309.14   -91143.211    246.86625    20724    226183.16   -33.429383   -130.07613   -28.247781     58.03576    433.44478     23.52667    22.180229    1.3152102    434.75999   -4145.6512 
   28100   -101160.13   -91099.544    244.30823    20724    226034.15    83.061484    175.88104    48.301985    25.001422    433.70621     23.51183    22.166238    1.1844953     434.8907    -4199.511 
   28200   -101255.37   -91101.955    246.56258    20724    225944.03    7.0925569   -90.876159   0.56279021    111.59104    433.61055    23.509735    22.164263    1.2323263    434.84287   -4196.5267 
   28300   -101141.32   -91098.215    243.88379    20724    225859.53   -64.260612   -144.09923   -160.46825    111.78564    433.36437    23.512013    22.166411    1.3554146    434.71979   -4199.5599 
   28400    -101180.8   -91102.462    244.73933    20724    225721.48   -46.437505    15.137915   -325.78567    171.33524    433.32563    23.505878    22.160627    1.3747842    434.70042    -4201.489 
   28500   -101219.24   -91088.116    246.02114    20724    225929.33    10.524938    -4.415263    38.618351    -2.628274    433.43289    23.513788    22.168084    1.3211567    434.75404    -4214.688 
   28600   -101124.97   -91091.405    243.65206    20724    225791.55   -31.003652   -69.893358    244.04851   -267.16611    433.42896    23.506723    22.161424    1.3231189    434.75208   -4212.7772 
   28700   -101140.39   -91077.146    244.37267    20724    225999.35    93.744466    138.41013   -71.680363    214.50363    433.57751    23.513508    22.167821    1.2488458    434.82635   -4227.9729 
   28800   -101182.75   -91076.663     245.4132    20724    226039.79    58.822944    50.599895    2.5892364     123.2797    433.66135    23.513339    22.167661    1.2069228    434.86828   -4227.3261 
   28900    -101304.8   -91053.735    248.93378    20724    226160.13   -20.956955   -96.723791    30.856641    2.9962856    433.83563    23.514873    22.169107    1.1197827    434.95542   -4245.0989 
   29000   -101196.64   -91021.759    247.08376    20724    226182.07    -11.95768   -8.7884505     30.60711     -57.6917    433.80387    23.516874    22.170994    1.1356659    434.93953   -4277.1373 
   29100   -101241.98   -91104.242    246.18181    20724    226069.21    82.430011    179.29903    76.034536    -8.043536    433.67483    23.514503    22.168759    1.2001853    434.87501   -4204.9759 
   29200   -101161.42   -91076.305    244.90389    20724    226060.56    24.261595   -91.283123   -208.33493    372.40284    433.60004    23.516082    22.170247    1.2375785    434.83762   -4229.7593 
   29300   -101214.78   -91094.749    245.75175    20724    226024.34   -25.760953   -52.932479   -137.37619    113.02581     433.8976    23.506133    22.160868     1.088802     434.9864   -4208.9643 
   29400   -101202.78   -91115.245    244.96276    20724    225858.07    -15.97007    179.64385   -71.854229   -155.69983    433.77316    23.500856    22.155893    1.1510212    434.92418   -4196.2944 
   29500   -101196.26   -91076.139     245.7539    20724    225914.21   -14.234941    39.681219    99.663043   -182.04908    433.68819    23.506079    22.160817    1.1935074    434.88169    -4233.825 
   29600   -101209.16   -91040.714    246.92736    20724    226154.35    18.113205   -147.36296   -68.240064    269.94264    433.71663    23.517798    22.171865    1.1792828    434.89592    -4266.982 
   29700   -101261.78   -91061.143    247.70914    20724     225876.9   -73.224308   -20.427113    -246.9474    47.701593    433.36765    23.512829     22.16718    1.3537757    434.72142   -4252.7643 
   29800   -101092.22   -91037.949    244.15491    20724    225919.83   -31.592448    132.49825    -262.0415    34.765914    433.31978    23.516362    22.170511    1.3777083    434.69749   -4274.6476 
   29900   -101063.93   -91030.741    243.64301    20724    225981.07   -11.569083   -12.995722   -35.073989     13.36246    433.30854    23.519854    22.173803    1.3833284    434.69187   -4281.7031 
   30000   -101206.33   -91071.009     246.1231    20724     225791.7   -35.594775    2.3531769    98.029718   -207.16722    432.99603     23.51848    22.172508    1.5395841    434.53562   -4248.0236 
   30100   -101205.51   -91033.158    247.02223    20724    225742.46   -91.454706    55.816735     6.947661   -337.12851    433.20153    23.510337    22.164831    1.4368374    434.63836    -4287.667 
   30200   -101200.56   -91051.133    246.46562    20724    225875.49   -5.4586769    110.73704   -49.952787   -77.160285    433.41019    23.511601    22.166023    1.3325055    434.74269   -4270.6625 
   30300   -101144.24    -90991.58    246.54421    20724    225850.49    41.915607    -29.27169    116.47347    38.545046    433.44483    23.509361    22.163911    1.3151838    434.76002   -4336.2656 
   30400   -101113.13    -90950.12    246.79542    20724    225780.94   -62.615491    208.40474   -275.57616   -120.67505    433.33905     23.50861    22.163203    1.3680767    434.70712   -4372.9353 
   30500   -101100.54   -90973.851    245.91335    20724    225715.78   -101.62008   -97.408395    159.55799   -367.00983    433.55827    23.499274    22.154401    1.2584671    434.81673   -4351.3888 
   30600   -101160.37   -90953.051    247.87138    20724    225981.86   -47.373559   -191.63416   -3.2396968    52.753183    433.72887    23.508495    22.163095    1.1731658    434.90203   -4368.8689 
   30700   -101165.46   -90951.942    248.02193    20724    225690.59   -32.509352   -98.834454    112.77766   -111.47126    433.54138     23.49842    22.153596    1.2669076    434.80829    -4379.552 
   30800   -101030.57   -90952.183     244.7406    20724    225828.63     72.08732   -150.23508    395.39259   -28.895551     433.5026    23.506656    22.161361    1.2862995     434.7889   -4382.0884 
   30900   -101089.63   -90945.773    246.33044    20724    225866.33    20.039567   -169.15772   -102.29877    331.57519    433.62616    23.505269    22.160053    1.2245181    434.85068   -4388.1936 
   31000   -101096.37   -90953.326    246.31066    20724     226173.8    14.430997    15.179289   -257.61532    285.72902    433.75953    23.517646    22.171722    1.1578341    434.91737   -4372.9484 
   31100    -101055.6   -90934.119    245.78699    20724    225966.73   -44.548514    68.877947   -81.972301   -120.55119    433.56777    23.512076     22.16647    1.2537134    434.82149   -4394.5554 
   31200   -101043.27   -90946.436    245.18855    20724    226020.91    137.48648    11.375559    213.69136    187.39253     433.4211    23.518873    22.172878    1.3270494    434.74815    -4389.875 
   31300   -101156.96   -90942.615    248.04194    20724    225875.98   -12.333726   -77.249933    7.8798891    32.368865    433.63935    23.505414     22.16019    1.2179262    434.85727   -4394.4351 
   31400   -101159.11   -90927.413    248.46338    20724    226064.35   -34.203111   -263.11483   -26.537649    187.04314    433.73136    23.512718    22.167076    1.1719212    434.90328   -4403.2654 
   31500    -101004.8   -90924.187    244.79466    20724     226157.8    121.40771    144.13363    279.40864   -59.319141    433.67261    23.519171    22.173159    1.2012951     434.8739    -4410.915 
   31600   -101035.15   -90907.359    245.94031    20724    225886.63   -88.549054    25.885908   -194.73896   -96.794106    433.37423    23.513157    22.167489    1.3504856    434.72471   -4427.3089 
   31700      -101131   -90926.627    247.80001    20724    226238.93    21.691167   -94.740841    90.011281    69.803061    433.62792    23.524601    22.178278    1.2236411    434.85156   -4405.4878 
   31800   -101088.01   -90914.034    247.06164    20724    226018.58     53.95948    177.64239    15.786735   -31.550683    433.91978    23.505233    22.160019    1.0777104    434.99749   -4427.6955 
   31900   -101050.22   -90890.242    246.72175    20724    226132.76   -75.660223   -84.567353   -86.006851   -56.406466     434.1557    23.504781    22.159593   0.95975238    435.11545   -4442.9604 
   32000   -101014.23   -90862.915    246.51146    20724    226166.24    20.971064    79.710123   -52.385185    35.588253    434.12799    23.507271     22.16194   0.97360583    435.10159   -4475.4817 
   32100    -101010.8   -90883.694    245.92355    20724    226362.27    28.565176   -12.562943   -184.10574    282.36421     434.2678     23.51367    22.167973   0.90369833     435.1715   -4448.2563 
   32200   -100987.49   -90870.122    245.68707    20724    226163.04    70.883354     172.5773   -253.20136    293.27412    434.09454     23.50801    22.162637   0.99032935    435.08487   -4471.1048 
   32300   -101112.81   -90837.803    249.51514    20724    226258.96   -32.737085   -36.193644   -95.247076    33.229464    434.19067    23.510392    22.164883   0.94226335    435.13294   -4496.3763 
   32400   -101091.19   -90818.986    249.44714    20724    226225.36   -99.419351     75.47472   -105.77365   -267.95913    434.17293    23.509126    22.163689    0.9511357    435.12406   -4515.5388 
   32500   -101023.59   -90822.238    247.72652    20724    226256.59    -4.985938    60.144761    129.62723    -204.7298    434.28117    23.507819    22.162457   0.89701614    435.17818    -4515.828 
   32600   -101066.94   -90852.014    248.05627    20724    226470.18   -26.463592   -125.31793   -135.19915     181.1263    434.40957    23.515436    22.169638   0.83281744    435.24238   -4481.4434 
   32700   -101020.85    -90836.54    247.31281    20724    226256.15      24.9976     27.25877    67.450622   -19.716593    434.61317    23.498815    22.153969   0.73101614    435.34418   -4505.4341 
   32800   -100910.58   -90790.032    245.76422    20724    226369.47    3.6321546    89.876759    72.401509    -151.3818     434.6239    23.504409    22.159242   0.72565069    435.34955   -4545.8493 
   32900   -100912.16   -90770.548     246.2759    20724     226283.4    56.526488    174.84952   -10.173366    4.9033092    434.31276    23.508357    22.162964   0.88122179    435.19398   -4573.2239 
   33000   -100910.56   -90743.551    246.89254    20724    226351.93   -41.324642    32.796275    -168.4455    11.675301    434.35327    23.510819    22.165286   0.86096657    435.21423   -4593.3969 
   33100   -100931.29    -90698.07    248.50042    20724    226347.71   -17.468099    4.2028502   -152.35206    95.744909    434.66359    23.502206    22.157166   0.70580354     435.3694   -4641.1893 
   33200   -100961.52   -90724.947    248.58189    20724    226159.37    93.817404    165.87925    143.32083   -27.747875    434.23566    23.503999    22.158856   0.91976936    435.15543   -4629.7478 
   33300   -100978.36   -90735.859    248.72571    20724    226202.31    87.635994    116.43287     85.83262    60.642494    434.37879    23.502357    22.157308   0.84820505    435.22699   -4616.6614 
   33400   -101048.22   -90773.298    249.51314    20724    226085.17   -59.792478    63.709095   -82.332819   -160.75371    434.18615    23.501483    22.156484   0.94452404    435.13068   -4576.7511 
   33500   -101000.67   -90796.226    247.80154    20724     226143.8   -38.758429   -176.98222    86.095201   -25.388273    434.24084     23.50305    22.157961   0.91717798    435.15802    -4556.006 
   33600   -101009.95    -90781.13    248.39358    20724    225935.15   -12.431675   -87.938298   -69.259152    119.90243    434.16478    23.494263    22.149677   0.95520983    435.11999   -4579.1701 
   33700   -101011.71   -90771.886     248.6607    20724    225884.92    16.319504    145.53149   -72.715775   -23.857203    433.88679    23.499175    22.154308    1.0942026      434.981   -4591.7994 
   33800   -100934.26   -90752.289    247.25587    20724    226098.21    125.28901    52.388973   -222.84432    546.32238    434.05946    23.505591    22.160356    1.0078724    435.06733   -4612.0421 
   33900   -100937.41    -90730.71     247.8564    20724    226070.41      29.7001   -47.295871    253.07134   -116.67517    433.87982    23.509011    22.163581     1.097691    434.97751   -4628.9235 
   34000   -100929.84   -90750.264    247.19781    20724     226148.4    13.042297   -64.160323    150.74292   -47.455712    433.99325    23.509992    22.164506    1.0409728    435.03423   -4607.2796 
   34100   -101104.05   -90746.927    251.50912    20724       226132   -41.067309    59.759466    -105.7155   -77.245898    434.13422    23.505323    22.160104    0.9704919    435.10471   -4612.2939 
   34200   -100968.18   -90697.732    249.40452    20724    226196.97    29.500316    18.370037     315.1566   -245.02569     434.2307    23.506087    22.160825    0.9222487    435.15295   -4664.2307 
   34300   -100971.83   -90666.093    250.26131    20724    226296.42    25.101274    75.526262    192.27911   -192.50155    434.21241    23.511749    22.166162   0.93139279    435.14381   -4692.4259 
   34400    -100823.2   -90673.008    246.48423    20724    226260.36   -7.4907644   -216.27687    -20.83275    214.63733    433.90281    23.518262    22.172303     1.086197      434.989   -4683.9699 
   34500   -100946.13   -90712.424    248.51231    20724    226228.52   -32.536413   -60.199693    152.39245     -189.802    434.07648    23.511902    22.166306   0.99936098    435.07584   -4647.4205 
   34600   -100886.81    -90734.59    246.53342    20724    226188.27    96.072726   -74.657078    218.18335    144.69191    433.92272    23.513976    22.168261    1.0762408    434.99896   -4633.9327 
   34700   -100938.29   -90672.889    249.28193    20724    226259.29    26.784949    33.573304    121.73448   -74.952935    434.10456    23.512741    22.167097   0.98532192    435.08988   -4691.7481 
   34800   -100929.28   -90672.363    249.07594    20724    226268.96    11.143854    77.291732   -40.565435   -3.2947347    434.07343    23.514086    22.168365    1.0008855    435.07431   -4692.4133 
   34900   -100806.28   -90651.673    246.59151    20724    226161.46    64.160885    180.60656    56.301565   -44.425469    433.74408    23.517423    22.171512    1.1655608    434.90964   -4719.6812 
   35000   -100930.28    -90686.74    248.75097    20724       226003   -46.161762   -16.447596   -165.39108    43.353393    433.68606    23.510756    22.165226    1.1945702    434.88063    -4685.417 
   35100   -100955.74   -90639.142    250.52508    20724    226128.57   -78.648008    121.08327   -258.64683   -98.380464    433.87583    23.512142    22.166533    1.0996829    434.97552   -4728.6747 
   35200   -100895.25   -90597.587    250.06525    20724    226339.02     94.93181   -124.60535    47.261212    362.13957    434.01969    23.519182     22.17317    1.0277558    435.04744   -4776.2631 
   35300    -100975.3   -90598.061    251.99775    20724    226076.61   -88.254929   -106.11925   -194.65849    36.012956    433.88814    23.509107    22.163672    1.0935277    434.98167   -4773.3043 
   35400   -100908.11    -90591.21    250.53252    20724    226043.94   -32.653474    -139.3375    50.469902    -9.092822    433.82606    23.509091    22.163656    1.1245714    434.95063   -4783.3572 
   35500   -100923.09   -90616.401    250.28443    20724    226082.27   -27.462738   -78.432726    2.1892578   -6.1447473    433.83695    23.510789    22.165257    1.1191258    434.95607   -4760.8687 
   35600   -100800.47   -90589.343    247.96383    20724    226214.56    45.595346   -50.016509    183.14068    3.6618638    434.12268    23.509926    22.164443   0.97625992    435.09894   -4786.0204 
   35700   -100867.69   -90566.332    250.15513    20724    225939.46   -4.1884752   -23.035842   -52.017216    62.487632      434.023    23.498324    22.153505    1.0260983     435.0491   -4815.6556 
   35800    -100895.2   -90603.179    249.92833    20724    225903.61   -81.844706   -87.834392   -255.62369    97.923968    433.82614     23.50179    22.156773    1.1245285    434.95067   -4777.3784 
   35900   -100822.31   -90600.749    248.21719    20724    226038.38    199.98195    411.38711    109.32347    79.235273    433.84053    23.508409    22.163014     1.117333    434.95787   -4791.1272 
   36000   -100944.71   -90594.656    251.33764    20724    225868.54   -71.162743    23.021369    206.30366   -442.81326    433.78957    23.500956    22.155987     1.142816    434.93238   -4792.1681 
[...]
  491300   -93257.899   -80482.393    310.23654    20724    220645.29     135.9216    54.614709    53.510733    299.63935    420.75339    23.584721    22.234958    7.6609061    428.41429   -22627.592 
  491400   -93287.849   -80493.305    310.69884    20724    220682.49    55.128484    98.798318   -76.711163     143.2983     420.8623    23.583656    22.233954    7.6064483    428.46875   -22612.825 
  491500   -93226.573   -80506.748    308.88438    20724    220651.19   -53.651168    16.237958   -124.03005   -53.161415    420.86569    23.581889    22.232288    7.6047557    428.47044   -22593.762 
  491600   -93332.085   -80510.073    311.36586    20724    220459.67   -32.914321   -175.27545   -171.72314    248.25563    421.11163    23.564768    22.216147    7.4817834    428.59342    -22601.57 
  491700   -93367.387   -80503.275     312.3882    20724    220457.45   -28.906438    9.6984202    85.151006   -181.56874    420.92084    23.569989    22.221069    7.5771795    428.49802   -22612.284 
  491800   -93281.723   -80470.302    311.10868    20724    220755.36    -84.85038    81.117753   -124.10063   -211.56826    421.29484    23.575438    22.226206    7.3901783    428.68502   -22632.148 
  491900   -93179.194   -80457.953    308.91876    20724    220823.32   -88.252039   -374.70191   -128.27804    238.22383    421.22558    23.581005    22.231455    7.4248101    428.65039   -22640.985 
  492000   -93267.161   -80491.552    310.23903    20724    220729.28     123.0938    5.0626609    456.47729   -92.258549    421.19281    23.576901    22.227585    7.4411944    428.63401   -22625.514 
  492100   -93239.124   -80494.888    309.47717    20724    220839.75   -43.092133   -29.022643    10.481815   -110.73557    421.37857    23.577601    22.228245    7.3483139    428.72689   -22611.273 
  492200   -93238.515   -80457.012    310.38215    20724    221313.38   -73.354678    46.743784    8.9689912   -275.77681     421.5884    23.596996    22.246531    7.2433998     428.8318   -22632.633 
  492300   -93194.286   -80467.088    309.06343    20724    220964.46    64.919868    109.86412   -202.45131    287.34679    421.63353    23.577126    22.227798     7.220837    428.85436   -22643.888 
  492400   -93246.204   -80480.684    309.99403    20724    221244.25    127.39032    93.576326   -47.067581     335.6622    421.55862    23.594144    22.243842    7.2582904    428.81691   -22623.246 
  492500   -93200.591   -80483.675    308.81374    20724    221520.47    25.245414    80.078894    33.511965   -37.854619    422.27726     23.58877    22.238776    6.8989713    429.17623   -22610.386 
  492600   -93147.783   -80456.912    308.18128    20724    221321.61     45.31856   -37.980957    143.55099    30.385648    421.75005    23.592912     22.24268    7.1625747    428.91263   -22644.118 
  492700   -93203.534   -80464.112    309.36027    20724    221093.77   -12.214316   -140.86186   -7.9988875     112.2178    421.38345    23.591021    22.240897    7.3458748    428.72933   -22645.645 
  492800   -93233.501   -80477.278    309.76825    20724     220806.1   -75.149203   -118.18646    99.116615   -206.37776    421.51225    23.572066    22.223027    7.2814743    428.79373   -22641.232 
  492900   -93223.285   -80460.832    309.91956    20724    221242.57    30.559823    99.818092   -26.007998    17.869374    421.84097    23.586157    22.236312    7.1171145    428.95809   -22646.238 
  493000   -93238.219   -80455.282    310.41698    20724    221370.93    -16.31877    29.026408   -9.5423155   -68.440403    421.74268    23.595747    22.245353    7.1662578    428.90894   -22646.353 
  493100   -93345.712   -80516.244     311.5469    20724    221099.08    2.1356321   -33.047704    136.64233   -97.187727    421.64462    23.583997    22.234275    7.2152879    428.85991   -22601.731 
  493200   -93266.418    -80487.41    310.32156    20724    221311.67    25.504801   -245.81648   -173.28084    495.61172    421.74428    23.592544    22.242333     7.165458    428.90974   -22624.298 
  493300   -93322.577   -80476.553    311.94895    20724    221213.69   -42.310037    306.47724   -21.636204   -411.77114    421.99128    23.580417      22.2309     7.041958    429.03324   -22639.538 
  493400   -93239.415   -80476.679    309.92642    20724    221153.01    31.787804   -112.00089    137.50382    69.860483    421.74001    23.584205    22.234471    7.1675958     428.9076   -22646.465 
  493500   -93263.277   -80474.313    310.56333    20724    221454.32   -60.072439    84.661841   -10.455129   -254.42403    422.04696    23.591682     22.24152     7.014119    429.06108   -22634.254 
  493600   -93109.968   -80429.766    307.92218    20724    221260.43   -6.0280733    10.233392   -77.243525    48.925913    421.70169    23.591004    22.240881     7.186755    428.88844   -22689.399 
  493700   -93183.126   -80427.511    309.75348    20724     221598.7    89.439916    140.82344    112.33072    15.165596    421.95837    23.601848    22.251105    7.0584127    429.01679   -22687.122 
  493800   -93326.686   -80418.286    313.46368    20724    221440.67    19.744542    188.68131    174.69361   -304.14129    422.04303    23.591065    22.240939    7.0160846    429.05912   -22700.071 
  493900   -93236.477   -80415.249    311.34682    20724    221451.76   -26.804231    78.790985      27.0237   -186.22738    422.32037    23.583908    22.234191    6.8774162    429.19778   -22703.716 
  494000   -93181.199   -80403.564    310.28823    20724    221543.19    57.151172    14.441574    60.998973     96.01297    422.29316    23.589536    22.239497    6.8910215    429.18418   -22718.212 
  494100   -93237.419    -80423.61    311.16665    20724    221259.89   -4.9412752   -226.15428     128.4078     82.92265    422.22145     23.57645     22.22716    6.9268736    429.14833   -22707.554 
  494200   -93211.143   -80445.135    310.00589    20724    221278.58     112.5118   -51.016287    180.40761    208.14408    421.64475    23.593564    22.243295    7.2152231    428.85998   -22692.485 
  494300   -93354.396   -80475.313    312.75174    20724    221288.05   -76.123808   -38.307557   -172.28048   -17.783385    422.08587    23.581737    22.232145    6.9946632    429.08054   -22658.425 
  494400   -93235.905   -80458.324    310.28691    20724    221300.71    46.156435    61.585194    232.02119   -155.13708    421.93655    23.586584    22.236714    7.0693244    429.00588   -22679.703 
  494500   -93348.022   -80494.277    312.13646    20724    221628.51      -30.086    198.79883   -438.61333     149.5565     422.3819    23.591599    22.241442    6.8466522    429.22855   -22630.853 
  494600   -93199.743    -80526.16    307.76146    20724    221250.93    57.178272   -19.116381    199.77659   -9.1253925    422.07718    23.580001    22.230508    6.9990091    429.07619   -22617.649 
  494700   -93295.294   -80495.397    310.82883    20724    221407.88   -14.141433    13.598405    77.428465   -133.45117    422.31003     23.58186    22.232261    6.8825833    429.19262   -22642.742 
  494800    -93284.42   -80483.226    310.86032    20724    221407.72    97.132505    324.42074    170.66657   -203.68979    422.69147    23.571209    22.222219    6.6918664    429.38333   -22662.509 
  494900   -93267.799   -80476.748    310.61401    20724    221210.74    62.430789    130.36981   -100.38841    157.31097    422.54753    23.564734    22.216115    6.7638362    429.31136   -22678.513 
  495000   -93209.471    -80478.35    309.15869    20724    221136.64   -31.182586   -63.546855   -87.306124    57.305222    422.47105    23.562919    22.214404    6.8020743    429.27313   -22674.657 
  495100   -93241.021   -80470.218    310.12233    20724    221264.28   -27.530388   -5.7763127    215.18545   -292.00031    422.55606    23.567347    22.218579    6.7595717    429.31563   -22679.952 
  495200   -93198.149   -80458.023    309.37736    20724    221168.51    36.803592   -129.03744     199.1803    40.267909    422.47106    23.564617    22.216004    6.8020724    429.27313   -22700.924 
  495300   -93321.782   -80450.074    312.57266    20724    221261.53   -1.6790426   -29.600299    89.786109   -65.222937    422.46732    23.569676    22.220774    6.8039377    429.27126   -22706.633 
  495400   -93202.823   -80441.922    309.88185    20724    221233.98     23.17372    269.62683    30.282125    -230.3878    422.53836    23.566227    22.217523    6.7684194    429.30678   -22713.892 
  495500   -93281.718   -80437.138    311.91389    20724    221158.41   -56.309134    28.534903   -50.248535   -147.21377    422.31067    23.568553    22.219715    6.8822656    429.19293    -22721.95 
  495600   -93249.666   -80446.746    310.90222    20724    221331.57   -65.860377    38.456107   -183.91005   -52.127187    422.31898    23.577546    22.228193      6.87811    429.19709   -22706.765 
  495700   -93313.128   -80447.663    312.42106    20724    220972.38   -58.805477   -44.848702   -44.458793   -87.108936     421.5213    23.580687    22.231155    7.2769497    428.79825   -22721.386 
  495800   -93277.361   -80446.068    311.59124    20724    220728.64   -7.0320145   -104.59092    2.0214018    81.473475    421.15534    23.577915    22.228542    7.4599285    428.61527   -22736.867 
  495900   -93181.895   -80465.652    308.79741    20724     220995.6    20.756426   -106.98407    184.83251   -15.579161    421.52813    23.581734    22.232142    7.2735326    428.80167   -22708.929 
  496000     -93312.9   -80509.683    310.90946    20724    220562.05    2.0412915    85.206097    226.79481   -305.87703    421.28214    23.565469    22.216808    7.3965316    428.67867   -22685.941 
  496100   -93245.409   -80488.543    309.78387    20724    221066.66    46.560918    166.13751    107.81571   -134.27047    421.72428     23.58004    22.230545    7.1754621    428.89974   -22690.158 
  496200   -93282.716   -80518.314    309.96689    20724    221042.54     -67.7982    41.862687    120.97273   -366.23002    421.88629    23.574226    22.225064    7.0944545    428.98075   -22659.283 
  496300   -93388.809   -80544.287    311.91248    20724    220690.66    47.981517   -126.20357   -160.13322    430.28135    421.60347    23.563354    22.214814    7.2358665    428.83933   -22654.382 
  496400   -93335.009   -80541.935    310.66314    20724    220859.77    6.5714505    261.29882   -124.22955   -117.35491    421.44081    23.576929    22.227612    7.3171963      428.758    -22649.61 
  496500   -93351.239   -80521.898    311.54383    20724    220860.41    13.101309   -166.10553    197.62289    7.7865697    421.65922    23.570856    22.221886    7.2079889    428.86721   -22670.417 
  496600   -93287.738   -80525.495    309.91444    20724    220794.32    24.089163    144.17329    199.72408   -271.62989    421.54499    23.570522    22.221572    7.2651048     428.8101   -22672.712 
  496700   -93311.954   -80478.268    311.64934    20724    220658.34   -137.54644   -307.03636    21.928227   -127.53118    421.45345    23.565821     22.21714    7.3108736    428.76433   -22719.532 
  496800   -93260.446    -80521.82    309.34095    20724    220778.13    89.447132   -34.479967     86.75737    216.06399    421.53941    23.569814    22.220904    7.2678969     428.8073   -22681.554 
  496900   -93262.958   -80506.244    309.78017    20724    220767.96   -32.980226   -31.613348   -275.37753     208.0502    421.26135    23.577048    22.227724    7.4069235    428.66828   -22695.312 
  497000   -93237.629   -80531.478    308.55232    20724    220646.43    57.188597   -109.30601    28.657381    252.21442    421.00298    23.577789    22.228423    7.5361113    428.53909   -22680.344 
  497100   -93309.046   -80485.105    311.41269    20724    220801.84   -163.40504   -272.99056   -467.16323    249.93868    421.02719    23.585413     22.23561    7.5240063    428.55119   -22712.701 
  497200   -93169.355    -80448.61     308.9067    20724    220547.94   -103.10016   -313.11557   -39.675443    43.490541    420.49739    23.586693    22.236818     7.788905     428.2863   -22761.506 
  497300    -93116.54    -80465.65    307.21037    20724    220539.83    48.484611   -93.510627   -67.734772    306.69923    420.72348    23.579922    22.230433    7.6758615    428.39934   -22754.192 
  497400   -93237.384   -80459.196    310.30165    20724    220420.67    33.145941    19.730122   -221.54953    301.25723    420.50783    23.579594    22.230125    7.7836829    428.29152   -22767.478 
  497500   -93170.849   -80483.633    308.09252    20724     220501.5  -0.29132198    344.12897   -321.89489   -23.108053    420.67533    23.579222    22.229773    7.6999365    428.37526   -22739.911 
  497600    -93344.95   -80482.812    312.34026    20724    220563.35    4.1604886    123.96799   -202.13421    90.647683    420.68258    23.582325    22.232699    7.6963118    428.37889   -22743.875 
  497700   -93140.747   -80515.556    306.58633    20724    220284.97   -47.551117   -53.539332   -207.03911    117.92509    420.37234    23.576133    22.226862    7.8514288    428.22377   -22716.556 
  497800   -93217.998   -80508.597    308.63125    20724    220548.57    4.4741213    52.706541   -72.660765    33.376588    420.05246    23.599216    22.248623    8.0113693    428.06383   -22720.557 
  497900   -93225.371   -80520.473    308.52189    20724    220457.44   -21.309452    175.58672    6.9650301   -246.48011    420.27718    23.588031    22.238079    7.8990084    428.17619   -22710.722 
  498000   -93327.876   -80548.724    310.32506    20724    220222.35    17.650031   -189.30041    240.54571    1.7047957    419.98725    23.583587    22.233888    8.0439743    428.03123   -22694.314 
  498100   -93372.187   -80518.056    312.14582    20724    220363.54   -69.568243   -167.46609    67.995728   -109.23437    419.54122    23.603683    22.252835    8.2669901    427.80821   -22720.497 
  498200    -93170.64   -80519.034    307.22777    20724    220611.69     51.72302    19.602304    18.510227    117.05653    420.22591    23.597721    22.247214    7.9246446    428.15056   -22715.234 
  498300   -93245.154   -80526.492    308.85615    20724    220616.91    46.531082    108.14629    365.60606    -334.1591    420.17849    23.599332    22.248733    7.9483544    428.12685   -22710.308 
  498400   -93302.737   -80558.259    309.48305    20724    220235.83   -45.803724   -261.86503   -461.85687    586.31072     419.7192    23.591838    22.241668    8.1780008     427.8972   -22692.929 
  498500   -93401.192   -80554.147    311.97375    20724    220297.24   -18.371665   -58.311932    206.57351   -203.37657    419.45844     23.60246    22.251682    8.3083815    427.76682   -22696.635 
  498600   -93175.835   -80499.149    307.83679    20724    220430.93    45.491682    182.10164    331.79617   -377.42276     419.7275    23.602052    22.251297     8.173848    427.90135   -22748.337 
  498700   -93243.746   -80505.064    309.34229    20724    220383.52   -93.594749   -115.18516   -215.94337    50.344286    419.62945    23.602271    22.251504    8.2228763    427.85232   -22740.367 
  498800   -93150.257   -80473.637     307.8352    20724    220500.51    186.90981    178.28514    10.441014    372.00328    420.18864     23.59282    22.242594    7.9432789    428.13192   -22781.277 
  498900   -93233.583   -80510.549     308.9623    20724    220266.44   -75.939971    36.467613   -171.76422   -92.523303    420.68599    23.566352     22.21764    7.6946038     428.3806    -22745.56 
  499000   -93205.226   -80510.819    308.26716    20724    220649.88    56.979544   -37.834289    127.69783    81.075088     420.8871    23.581219    22.231656    7.5940479    428.48115   -22737.483 
  499100   -93227.944   -80512.652    308.77429    20724    220384.76   -68.526088   -379.14532    132.12901    41.438047    420.80526     23.56934    22.220457    7.6349723    428.44023   -22741.917 
  499200   -93367.268   -80488.637    312.74076    20724    220670.07    -78.26286   -68.394046   -74.222369   -92.172166    420.73414    23.586584    22.236715    7.6705283    428.40467   -22756.941 
  499300   -93330.532   -80466.329    312.39041    20724     220586.2    -18.16965    71.468401    83.432766   -209.41012    420.33839      23.5932    22.242952    7.8684057    428.20679   -22786.304 
  499400   -93331.556   -80471.958     312.2786    20724    220467.71   -102.42437   -146.18092   -221.53577    60.443593    420.68114    23.577252    22.227917    7.6970296    428.37817   -22784.447 
  499500   -93204.764   -80430.729    310.20079    20724    220810.65   -38.883634    157.30139   -258.60056   -15.351731    421.27947    23.578821    22.229395    7.3978671    428.67733   -22815.436 
  499600   -93119.443   -80446.763    307.73952    20724    220559.99    37.085235    54.411709   -63.083472    119.92747    421.07654    23.571111    22.222127    7.4993294    428.57587   -22813.603 
  499700    -93228.17   -80463.954    309.96233    20724    220619.64    51.795697    113.56892    97.385003   -55.566828    420.76171    23.583117    22.233446    7.6567464    428.41845   -22798.046 
  499800   -93259.909   -80476.047    310.43943    20724    220335.48    50.749185    103.29573   -377.82856    426.78038    420.78627    23.567236    22.218474    7.6444628    428.43074   -22796.107 
  499900   -93177.469   -80464.299    308.72276    20724    220434.96   -34.849394    38.896051   -208.52872    65.084488    421.36947    23.556237    22.208104    7.3528671    428.72233   -22803.647 
  500000   -93230.812    -80458.25    310.16504    20724    220862.73   -43.147178    91.841048   -107.80345   -113.47913    421.58293    23.573112    22.224013    7.2461361    428.82906   -22796.772 
Loop time of 60966.1 on 32 procs for 500000 steps with 20724 atoms

Performance: 1.417 ns/day, 16.935 hours/ns, 8.201 timesteps/s
96.7% CPU use with 32 MPI tasks x no OpenMP threads

MPI task timing breakdown:
Section |  min time  |  avg time  |  max time  |%varavg| %total
---------------------------------------------------------------
Pair    | 7444.4     | 11624      | 14461      |1999.0 | 19.07
Bond    | 0.7115     | 0.81215    | 1.1262     |   9.8 |  0.00
Kspace  | 10617      | 13462      | 17661      |1865.9 | 22.08
Neigh   | 9344.2     | 11283      | 13063      |1355.3 | 18.51
Comm    | 387.43     | 3091.7     | 8759.8     |5124.4 |  5.07
Output  | 5.4184     | 40.165     | 86.244     | 375.0 |  0.07
Modify  | 15652      | 21391      | 25714      |2021.0 | 35.09
Other   |            | 73.16      |            |       |  0.12

Nlocal:    647.625 ave 700 max 587 min
Histogram: 1 3 2 4 8 0 3 5 3 3
Nghost:    7390.34 ave 7821 max 6676 min
Histogram: 2 1 0 3 5 3 5 3 3 7
Neighs:    238456 ave 273365 max 205987 min
Histogram: 1 4 10 3 0 1 2 3 5 3
FullNghs:  476915 ave 546586 max 416296 min
Histogram: 1 6 10 1 0 1 2 4 4 3

Total # of neighbors = 15261286
Ave neighs/atom = 736.406
Ave special neighs/atom = 2
Neighbor list builds = 500000
Dangerous builds not checked
write_data production.R1
PPPM initialization ...
  extracting TIP4P info from pair style
WARNING: Using 12-bit tables for long-range coulomb (../kspace.cpp:316)
  G vector (1/distance) = 0.345948
  grid = 400 48 48
  stencil order = 5
  estimated absolute RMS force accuracy = 0.000400876
  estimated relative force accuracy = 1.20723e-06
  using double precision FFTs
  3d grid and FFT values/proc = 67260 38400
write_restart restartproduction.R1
PPPM initialization ...
  extracting TIP4P info from pair style
WARNING: Using 12-bit tables for long-range coulomb (../kspace.cpp:316)
  G vector (1/distance) = 0.345948
  grid = 400 48 48
  stencil order = 5
  estimated absolute RMS force accuracy = 0.000400876
  estimated relative force accuracy = 1.20723e-06
  using double precision FFTs
  3d grid and FFT values/proc = 67260 38400
Total wall time: 16:56:07
