LAMMPS (30 Jul 2016)
# Sets up LAMMPS simulation for transient melting of ice: TIP4P/Ice
# Ensure cold thermostats do not move
# Thinbox: 16x1x1
# Defects
# Order param l=2

#### setting MD parameters ####
units real
boundary p p p
atom_style full

# read ice box in restart file
### read the equilibrated NPT restart file

read_restart restart.state
  orthogonal box = (0.25266 0.0136339 0.0128536) to (435.823 23.5176 22.1716)
  32 by 1 by 1 MPI processor grid
  20736 atoms
  13824 bonds
  6912 angles
  2 = max # of 1-2 neighbors
  1 = max # of 1-3 neighbors
  1 = max # of 1-4 neighbors
  2 = max # of special neighbors


#### force field definition ####
pair_style      lj/cut/tip4p/long 2 1 1 1 0.1577 10.0
pair_modify	tail yes

kspace_style	pppm/tip4p 1.0e-6

bond_style	harmonic
angle_style	harmonic
dihedral_style	none
improper_style	none

bond_coeff	1 450.0 0.9572
angle_coeff	1 55.0 104.52


# reset pair coeff
pair_coeff	* * 0.0 0.0

#OO
pair_coeff	2 2 0.21085 3.1668
#OH
pair_coeff	* 1 0.0000 0.0000

neighbor        2.0 bin
neigh_modify    every 1 delay 1 check no

timestep	2.0
fix		constraints all shake 0.000001 20 0 b 1 a 1
  0 = # of size 2 clusters
  0 = # of size 3 clusters
  0 = # of size 4 clusters
  6912 = # of frozen angles

group water type 1 2
20736 atoms in group water

#*********** SIMULATION PARAMETER TO ADJUST ****************
#Box dimensions
variable lx equal lx
variable ly equal ly
variable lz equal lz

### Temperature of the hot and cold regions ####
variable thi equal 375
variable tlo equal 215
variable runpressure equal 0.986923


# Configuration equilibrated in density and temperature

# Define dx here

variable lx equal lx
variable ly equal ly
variable lz equal lz

variable xlo equal xlo
variable xhi equal xhi

variable boxcentre equal ${xlo}+(${xhi}-${xlo})/2
variable boxcentre equal 0.252659730265037+(${xhi}-${xlo})/2
variable boxcentre equal 0.252659730265037+(435.822540269735-${xlo})/2
variable boxcentre equal 0.252659730265037+(435.822540269735-0.252659730265037)/2

variable dx equal 2.0

#### ADD IN DEFECTS AT THE CENTRE OF THE HOT THERMOSTAT #####
variable y1 equal ${ly}/2.0
variable y1 equal 23.5039322872533/2.0
variable z1 equal ${lz}/2.0
variable z1 equal 22.1587928293741/2.0

region kill1 sphere ${boxcentre} ${y1} ${z1} 3
region kill1 sphere 218.0376 ${y1} ${z1} 3
region kill1 sphere 218.0376 11.7519661436266 ${z1} 3
region kill1 sphere 218.0376 11.7519661436266 11.0793964146871 3
delete_atoms region kill1 compress no bond yes mol yes
Deleted 15 atoms, new total = 20721
Deleted 10 bonds, new total = 13814
Deleted 5 angles, new total = 6907
############


variable thip equal ${thi}*2.0/3.0
variable thip equal 375*2.0/3.0
variable tlop equal ${tlo}*2.0/3.0
variable tlop equal 215*2.0/3.0
variable hbl equal ${boxcentre}-${dx}
variable hbl equal 218.0376-${dx}
variable hbl equal 218.0376-2
variable hbh equal ${boxcentre}+${dx}
variable hbh equal 218.0376+${dx}
variable hbh equal 218.0376+2

#***************************************************
## EQUILIBRATION PERIOD - to reach the steady state ###
#run 0

#reset the timestep to start your production run
reset_timestep 0

# define a group to perform averages
#group s1 type 1
###*** SYSTEM THERMOSTATTING: HOT and COLD regions ***###

fix NVE all nve
fix PRESS all press/berendsen aniso ${runpressure} ${runpressure} 500000 couple yz
fix PRESS all press/berendsen aniso 0.986923 ${runpressure} 500000 couple yz
fix PRESS all press/berendsen aniso 0.986923 0.986923 500000 couple yz


### Apply THERMOSTATS ###

#set up the "hot region" in the middle of the box
region hot block ${hbl} ${hbh} 0 ${ly} 0 ${lz} units box
region hot block 216.0376 ${hbh} 0 ${ly} 0 ${lz} units box
region hot block 216.0376 220.0376 0 ${ly} 0 ${lz} units box
region hot block 216.0376 220.0376 0 23.5039322872533 0 ${lz} units box
region hot block 216.0376 220.0376 0 23.5039322872533 0 22.1587928293741 units box


#set up the "cold region" at the left end of the box
#region cold block ${cbl} ${cbh} 0 ${ly} 0 ${lz} units box

#set up the "cold region" at the right end of the box
#region cold2 block ${h2bl} ${xhi} 0 ${ly} 0 ${lz} units box


#Cold regions  unification
#region cold union 2 cold1 cold2 units box

#Create group of cold molecules
####group cool_ice region cold
####group cool_ice include molecule

####compute cold_temp cool_ice temp
####fix cold_rescale water temp/rescale 1 ${tlo} ${tlo} 0.0001 1.0
####fix_modify cold_rescale temp cold_temp

#this calculates the temperature using only the atoms in the "hot region"
#compute hot_temp all temp/region hot

# calculate the temperature using only WATER in the "hot region"
compute hot_temp water temp/region hot

#this calculates the temperature using only WATER in the "cold region"
#compute cold_temp water temp/region cold


#set up a basic velocity rescale for the hot region WATER with thip
fix hot_rescale water temp/rescale 1 ${thip} ${thip} 1.0 1.0
fix hot_rescale water temp/rescale 1 250 ${thip} 1.0 1.0
fix hot_rescale water temp/rescale 1 250 250 1.0 1.0
#change the thermostat to only act on the "hot region"
#this is done by passing it the "hot temp" compute that we defined above
fix_modify hot_rescale temp hot_temp

#set up a basic velocity rescale for the cold region
#fix cold_rescale water temp/rescale 1 ${tlop} ${tlop} 1.0 1.0
#change the thermostat to only act on the "cold region"
#this is done by passing it the "cold temp" compute that we defined above
#fix_modify cold_rescale temp cold_temp

### Ensure MOMENTUM CONSERVATION ###

#ensure that linear momentum is conserved despite the "thermostatting" by velocity rescaling
fix cons_mom all momentum 1 linear 1 1 1


thermo 100
thermo_style custom step pe etotal temp atoms vol press pxx pyy pzz lx ly lz xlo xhi  f_hot_rescale

group ox type 2
6907 atoms in group ox
group hy type 1
13814 atoms in group hy
compute KE all ke/atom
variable TEMP atom c_KE*4186.8/(1.3806488*6.02214129)

compute cc1 all chunk/atom bin/1d x center 2 units box
#fix TPROFILE all ave/chunk 1 500 500 cc1 v_TEMP density/number file temp.dat
fix TPROFILEox ox ave/chunk 1 500 500 cc1 v_TEMP density/number file temp-ox.dat
fix TPROFILEhy hy ave/chunk 1 500 500 cc1 v_TEMP density/number file temp-hy.dat

compute orderparam ox orientorder/atom degrees 1 2 nnn 4 cutoff 3.5
compute cc2 ox chunk/atom bin/1d x center 2 units box
#fix ORDERPARAM all ave/chunk 1 500 500 cc2 c_orderparam[1] file order-param.dat
fix ORDERPARAM all ave/chunk 1 500 500 cc2 c_orderparam[1] file order-param.dat

restart 50000 config.restart

run 500000
PPPM initialization ...
  extracting TIP4P info from pair style
WARNING: Using 12-bit tables for long-range coulomb (../kspace.cpp:316)
  G vector (1/distance) = 0.34555
  grid = 405 48 48
  stencil order = 5
  estimated absolute RMS force accuracy = 0.000406894
  estimated relative force accuracy = 1.22535e-06
  using double precision FFTs
  3d grid and FFT values/proc = 67260 38880
Neighbor list info ...
  2 neighbor list requests
  update every 1 steps, delay 1 steps, check no
  max neighbors/atom: 2000, page size: 100000
  master list distance cutoff = 12.3154
  ghost atom cutoff = 12.3154
  binsize = 6.1577 -> bins = 71 4 4
Memory usage per processor = 12.7824 Mbytes
Step PotEng TotEng Temp Atoms Volume Press Pxx Pyy Pzz Lx Ly Lz Xlo Xhi hot_resc 
       0   -103660.87   -94840.893     214.2126    20721    226852.97   -142.96218   -284.17938   -181.39188    36.684724    435.56988    23.503932    22.158793   0.25265973    435.82254            0 
     100   -103506.77   -94597.923    216.37108    20721    226438.95   -50.948991   -4.5957558   -193.75616    45.504947    435.27352    23.490467    22.146098    0.4008392    435.67436   -248.37773 
     200   -103551.32   -94577.073    217.95953    20721    226564.94   -41.098868   -217.97576   -5.7216975    100.40085    435.34968    23.494946    22.150321    0.3627581    435.71244   -268.31357 
     300   -103556.82   -94567.758    218.31933    20721    226388.96    134.34745    57.361322    109.77562     235.9054    435.06206    23.493582    22.149035   0.50656809    435.56863   -292.86789 
     400   -103573.21   -94499.537    220.37413    20721    226562.01   -21.015717    61.440359   -1.5965104     -122.891    435.20135    23.498798    22.153952   0.43692362    435.63828   -348.62674 
     500   -103486.46   -94462.795    219.15974    20721     226567.7    1.4975785   -121.60733    55.072169      71.0279    435.42325    23.493104    22.148585   0.32597615    435.74922   -387.10071 
     600   -103486.56   -94410.417    220.43427    20721    226522.39     20.37117    168.93439    71.537161   -179.35805    435.06591      23.5004    22.155463    0.5046438    435.57056   -442.87062 
     700   -103502.75   -94382.692    221.50077    20721    226584.16   -25.685102   -54.531698    77.325277   -99.848885    435.31547    23.496866    22.152131   0.37986345    435.69534   -468.32649 
     800   -103349.47   -94335.616    218.92134    20721    226474.99    68.796787    103.20711    169.70841   -66.525155    435.17547    23.494983    22.150356   0.44986372    435.62534   -521.85724 
     900   -103459.16   -94291.314    222.66145    20721     226550.3    65.143816    176.52869   -78.092608    96.995366    435.37002    23.493638    22.149088   0.35258986    435.72261   -567.79963 
    1000   -103289.52   -94249.416    219.55896    20721    226539.34   -13.693948    17.575845    -171.5824    112.92472    435.27714    23.495576    22.150915   0.39902824    435.67617   -603.07747 
    1100   -103394.26   -94211.483    223.02404    20721    226636.09    38.384269     16.78364     110.1698   -11.800637    435.37301    23.498005    22.153205   0.35109694     435.7241   -643.45296 
    1200   -103326.43   -94151.346    222.83723    20721    226571.58    13.159778   -19.834981   -31.157938    90.472254    435.36788    23.494799    22.150183   0.35366018    435.72154   -704.60577 
    1300   -103423.67   -94139.178    225.49431    20721    226600.54    -130.8901   -119.74291    44.405036   -317.33242    435.20534    23.500688    22.155734   0.43492973    435.64027   -710.20829 
    1400   -103368.51   -94145.958    223.99019    20721    226633.48    32.726864    188.51951    91.831169   -182.17009    435.29991    23.499843    22.154938   0.38764288    435.68756   -713.39207 
    1500    -103265.6    -94106.83    222.44109    20721    226634.06    69.895305   -107.91877    86.813123    230.79156     435.4139    23.496797    22.152066   0.33065166    435.74455   -753.10787 
    1600   -103257.96   -94103.502     222.3363    20721    226486.72    64.885946    24.977161    7.6236193    162.05706    435.33196    23.491368    22.146948    0.3716198    435.70358   -760.50793 
    1700   -103304.45   -94058.081     224.5686    20721    226672.05   -11.397311   -23.284123    -30.19893    19.291119    435.55871    23.494859    22.150239   0.25824505    435.81695   -800.35661 
    1800   -103280.88   -94019.117    224.94238    20721    226677.52    23.879832   -1.3282534   -7.3539699     80.32172    435.28795    23.502449    22.157394   0.39362259    435.68158   -841.42189 
    1900   -103247.95   -94038.803    223.66461    20721    226661.24    19.722634    131.80265   -186.38755    113.75281    435.24937    23.502646     22.15758   0.41291407    435.66229   -822.13087 
    2000    -103270.2   -94011.742    224.86219    20721    226529.31   -51.125498   -94.907793   -94.326922    35.858221    435.31851     23.49394    22.149372   0.37834595    435.69685   -849.86687 
    2100   -103290.92   -93985.805    225.99532    20721    226642.69   -26.978723    -63.36654    177.04554   -194.61518    435.43693    23.496623    22.151902   0.31913667    435.75606   -874.72967 
    2200   -103237.34   -93984.265    224.73135    20721    226556.09   -42.466508    -34.55169   -56.415191   -36.432642    435.40215    23.493071    22.148554   0.33652688    435.73867   -877.47207 
    2300   -103185.74   -93920.114    225.03613    20721    226547.25   -6.4211595   -49.259793   -75.189758    105.18607     435.3211      23.4948    22.150183   0.37704898    435.69815   -944.57693 
    2400    -103154.2   -93901.462    224.72315    20721    226577.62    13.487195    20.224289   -63.978973    84.216271    435.43731    23.493239    22.148712   0.31894723    435.75625    -963.7773 
    2500    -103195.8   -93841.583    227.18777    20721    226621.12   -10.440179   -51.026985    -15.27319    34.979638    435.54968    23.492463     22.14798   0.26276046    435.81244   -1023.5445 
    2600   -103074.41   -93808.405    225.04553    20721    226544.63    7.0901517   -54.413197   -14.092669    89.776321    435.24029    23.496846    22.152112    0.4174572    435.65774   -1060.4252 
    2700    -103109.9    -93763.77    226.99148    20721    226590.85    -21.08216    239.55741   -43.123063   -259.68082    435.22815     23.49957     22.15468   0.42352389    435.65168   -1102.4106 
    2800   -103100.44   -93772.438    226.55117    20721    226603.59    -7.719648   -229.33268   -22.784176    228.95791    435.19298     23.50118    22.156198   0.44110951    435.63409   -1095.3031 
    2900   -103186.85   -93742.877    229.36785    20721    226691.68    17.291003    16.448201    188.66153   -153.23673    435.37088    23.500945    22.155976   0.35216242    435.72304   -1127.1702 
    3000   -103123.35   -93719.885      228.384    20721    226765.56   -53.426423   -39.295255    14.728979   -135.71299    435.47064    23.502081    22.157048   0.30228052    435.77292   -1144.4823 
    3100   -103019.39   -93730.887    225.59185    20721    226597.88    1.9918295    37.338714    121.45842   -152.82164    435.17092    23.501479     22.15648   0.45214186    435.62306   -1139.5165 
    3200   -103089.83   -93697.352    228.11709    20721    226690.79    42.442177    191.33359   -138.83292    74.825864    435.42419     23.49946    22.154576   0.32550534    435.74969   -1174.2743 
    3300   -102914.14   -93676.935    224.34597    20721    226801.37     83.81308      95.1735   -1.3697334    157.63547     435.6388      23.4994     22.15452   0.21819875      435.857   -1193.9719 
    3400   -103087.84   -93691.151    228.21934    20721    226679.31    10.877846   -105.09582   -48.171602    185.90096    435.45736     23.49797    22.153172   0.30892241    435.76628   -1181.4164 
    3500   -103022.82   -93679.827    226.91522    20721    226709.61   -92.870897   -325.75804   -14.009506    61.154857     435.4409    23.499984    22.155071   0.31714872    435.75805   -1185.9167 
    3600   -103168.67   -93671.882    230.65048    20721    226660.27   -74.103214   -79.530943   -73.405263   -69.373435    435.43403    23.497612    22.152835   0.32058278    435.75462   -1200.3178 
    3700    -103073.6   -93650.879    228.85174    20721    226523.59    11.764622   -53.773774    65.230137    23.837502    435.23237    23.495968    22.151284   0.42141437    435.65379   -1226.8343 
    3800   -103128.13   -93623.924     230.8307    20721     226626.2   -40.378179    65.051065   -98.752126   -87.433475    435.54366    23.492889    22.148381   0.26577112    435.80943   -1251.1966 
    3900   -103040.92   -93571.751    229.97973    20721    226495.26   -16.660336   -130.69834   -43.362654    124.07999    435.32119    23.492102    22.147639   0.37700572    435.69819   -1309.2364 
    4000   -102933.54    -93528.43    228.42386    20721    226677.66     42.33911    76.185737    49.935408   0.89618486    435.38812    23.499753    22.154853   0.34354101    435.73166   -1351.0919 
    4100   -102973.43   -93537.698    229.16766    20721    226679.93   -36.876541     47.06905   -200.23813    42.539454    435.40102    23.499522    22.154635    0.3370895    435.73811   -1338.5221 
    4200   -103067.06   -93535.896    231.48544    20721    226634.59    13.008299    151.16856   -12.805149   -99.338509     435.5679     23.49267    22.148175   0.25365062    435.82155   -1346.3854 
    4300   -102936.79   -93514.989    228.82939    20721    226558.11   -16.278545    28.926854    179.19587   -256.95836    435.47572    23.491192    22.146782   0.29973967    435.77546   -1367.1151 
    4400   -102972.73   -93439.175     231.5434    20721    226878.33    30.897051    5.1304766    199.82323   -112.26256    435.81071    23.498751    22.153908   0.13224305    435.94296   -1437.3107 
    4500   -102845.48   -93468.917    227.73052    20721    226729.82    41.987991    96.369875    6.8952853    22.698814    435.47458    23.500123    22.155201   0.30031249    435.77489   -1412.8026 
    4600   -102921.38   -93440.631    230.26107    20721    226755.49   -59.934096     103.6734   -349.06902    65.593331    435.61493    23.497667    22.152886   0.23013645    435.84506   -1437.7294 
    4700   -102940.99   -93418.599    231.27225    20721    226604.73    -41.85831   -168.02348   -230.79263    273.24117    435.60903    23.490013     22.14567   0.23308573    435.84211   -1466.8457 
    4800   -102937.57   -93434.578     230.8011    20721    226603.81    -8.146381    3.9829694   -171.93015    143.50803    435.59147    23.490439    22.146072   0.24186594    435.83333   -1455.1421 
    4900   -102799.38   -93373.615    228.92551    20721    226705.69    49.379958    48.077404   -10.599218    110.66169    435.48345    23.498633    22.153797   0.29587664    435.77932   -1514.7811 
    5000   -102930.89    -93405.34    231.34902    20721    226662.82     52.01905    101.24718    170.97881   -116.16884    435.50671    23.495784     22.15111   0.28424679    435.79095   -1487.1067 
    5100   -102838.32   -93349.209    230.46413    20721     226708.7   -36.706554    37.563664   -1.2131796   -146.47015      435.523    23.497722    22.152938   0.27609768     435.7991   -1538.1009 
    5200   -102867.09   -93334.591    231.51793    20721    226616.19    54.418071   -72.695398   -159.56646    395.51607    435.32453    23.498282    22.153466   0.37533366    435.69987   -1560.4976 
    5300   -102848.36   -93347.577    230.74746    20721    226588.71    21.969765   -85.465798    73.102758    78.272336    435.47225    23.492872    22.148365   0.30147567    435.77372   -1548.5471 
    5400   -102798.97   -93319.183    230.23749    20721    226729.21   -18.849034    75.512724    -13.80523    -118.2546    435.49001    23.499675    22.154779   0.29259535     435.7826   -1569.4321 
    5500   -102785.19   -93310.591    230.11166    20721    226769.38    100.82254    51.424553    61.097879    189.94519    435.48941    23.501773    22.156757   0.29289418    435.78231   -1584.8508 
    5600   -102829.72   -93286.691    231.77351    20721    226742.95    7.3811114    115.65745    -37.19573   -56.318389    435.58939    23.497706    22.152923   0.24290274     435.8323   -1605.3512 
    5700      -102851   -93319.182    231.50137    20721    226791.91     1.916004     53.92341   -63.107822    14.932424    435.37833    23.505938    22.160684   0.34843409    435.72677   -1573.1108 
    5800   -102850.93   -93274.205    232.59206    20721    226743.22    32.486343   -34.378073    139.07766   -7.2405594    435.55437    23.498664    22.153826   0.26041641    435.81478   -1621.5332 
    5900   -102885.32   -93261.129    233.74469    20721    226778.11    -65.84173   -94.349585   -126.54655    23.370944    435.65669    23.497712    22.152929   0.20925371    435.86595   -1632.7169 
    6000   -102870.65   -93289.277    232.70488    20721    226800.07   -16.960804   -67.907157    183.55106   -166.52632     435.3249    23.507804    22.162443   0.37514859    435.70005   -1604.5395 
    6100   -102735.38   -93274.513    229.77808    20721    226661.18   -12.028113   -49.941036    107.04111   -93.184411    435.43396    23.497661    22.152881    0.3206204    435.75458    -1624.102 
    6200   -102824.79   -93223.117    233.19777    20721    226972.16   -65.504526    48.029191   -163.54724   -80.995529    435.69278     23.50679    22.161487   0.19121179    435.88399   -1665.1737 
    6300   -102863.43   -93264.836    233.12309    20721    226901.45   -14.541009    46.198857   -109.69594    19.874056    435.75272    23.501512    22.156511   0.16123806    435.91396   -1630.4012 
    6400   -102741.37    -93214.06    231.39176    20721     226801.6    6.0361944   -91.718995    71.377999    38.449579     435.3824    23.506331    22.161054   0.34640127     435.7288   -1685.5068 
    6500   -102768.87   -93218.071    231.96232    20721    226773.48    -99.94929    -126.3404   -237.99067    64.483209    435.45654    23.502872    22.157793    0.3093324    435.76587   -1677.4537 
    6600   -102911.92    -93218.84    235.41801    20721    226844.93   -141.43839   -247.54323   -149.58829   -27.183645    435.38713    23.508448     22.16305   0.34403398    435.73117   -1677.2926 
    6700   -102793.48   -93165.534    233.83598    20721     226577.1   -47.518143   -167.61248    66.260335   -41.202288    435.37372    23.494928    22.150304   0.35073895    435.72446   -1741.3359 
    6800   -102661.31    -93166.19    230.61011    20721    226725.89 0.0033280473    64.313824    -238.0118    173.70796    435.52638    23.498522    22.153692   0.27441249    435.80079   -1738.9375 
    6900   -102781.34   -93196.889    232.77968    20721     226645.7    58.452821    127.64431    163.25808   -115.54392    435.41923    23.497257    22.152499   0.32798614    435.74721   -1717.2531 
    7000   -102778.84   -93213.703    232.31053    20721    226687.09   -111.43199   -222.66637   -59.612335   -52.017276    435.39113     23.50016    22.155237   0.34203392    435.73317   -1691.3956 
    7100   -102776.83   -93161.252    233.53568    20721    226751.78    43.141633    127.05042    57.464142   -55.089669    435.61264    23.497537    22.152763   0.23128004    435.84392   -1750.6673 
    7200   -102763.39   -93144.148    233.62451    20721    226760.47    56.408952   -4.9686987    40.833795    133.36176    435.43313     23.50283    22.157753   0.32103301    435.75417   -1769.9174 
    7300    -102799.2   -93129.997     234.8381    20721     226921.9    59.732179   -2.9651656    1.4902425    180.67146      435.415    23.511683      22.1661   0.33010066     435.7451   -1781.1932 
    7400   -102696.21    -93094.32    233.20305    20721    226629.14   -2.3700366    52.180155      39.5238   -98.814065    435.46259    23.495228    22.150587   0.30630704    435.76889   -1821.3052 
    7500   -102684.59   -93095.594    232.89002    20721    226817.24    33.675213    75.416012    510.33413    -484.7245    435.75809    23.497006    22.152263   0.15855643    435.91664   -1817.2895 
    7600   -102648.35   -93064.922    232.75476    20721    226757.58    29.937626    60.269432    27.717504    1.8259425    435.67116    23.496259    22.151558   0.20202204    435.87318   -1849.9984 
    7700   -102723.61   -93110.836     233.4676    20721    226974.57    -1.746183    20.078808   -231.27407    205.95671    435.60539    23.509273    22.163828   0.23490457     435.8403   -1800.2356 
    7800   -102693.98   -93112.622    232.70454    20721    226824.65    69.094755   -16.780811    56.525361    167.53972    435.63579    23.500688    22.155734   0.21970644    435.85549   -1806.4382 
    7900   -102696.73   -93084.376    233.45727    20721    226854.33   -21.776999    131.57308   -88.627504   -108.27657    435.74668    23.499234    22.154364      0.16426    435.91094   -1829.4322 
    8000   -102669.11   -93071.554    233.09793    20721    226673.23    18.044148   -37.038118   -13.656909    104.82747     435.5593    23.494905    22.150282   0.25794852    435.81725   -1848.1935 
    8100   -102725.45   -93092.622    233.95447    20721    226831.42   -20.448277   -93.463407   -73.372903    105.49148    435.48159    23.505198    22.159986   0.29680487     435.7784   -1822.0343 
    8200   -102596.26   -93049.446    231.86545    20721    226820.58    92.354913   -64.014578    142.00035    199.07897    435.55167    23.502746    22.157674   0.26176561    435.81343   -1873.0725 
    8300   -102609.15   -93007.088    233.20736    20721    226856.85   -33.021915   -19.130661   -255.16723    175.23214    435.55203    23.504615    22.159437   0.26158439    435.81362   -1909.2185 
    8400    -102688.4   -92990.373    235.53807    20721    226810.41   -35.893315   -104.05511   -79.718987    76.094157    435.46834    23.504467    22.159297   0.30343018    435.77177    -1927.995 
    8500   -102594.69   -92996.918    233.10315    20721    226810.81    63.761585    153.64967    4.4296381    33.205445    435.40108    23.506303    22.161028   0.33705883    435.73814   -1927.3938 
    8600   -102622.84   -93013.723    233.37864    20721     226750.2    -17.40459   -58.146566   -73.764954     79.69775     435.4455    23.501964    22.156937   0.31485187    435.76035   -1908.9361 
    8700    -102623.1   -92982.207    234.15035    20721    227043.87    8.7958322   -68.863955    -118.0092    213.26065    435.54389    23.514522    22.168776   0.26565607    435.80954   -1934.3854 
    8800   -102695.85   -92980.644     235.9554    20721    226735.07   -4.5980228   -79.030427    3.3348531    61.901505    435.57702    23.497631    22.152852    0.2490899    435.82611     -1946.68 
    8900   -102646.25    -92982.65    234.70198    20721    226829.83    10.802885    -91.71774    12.955011    111.17138    435.45985    23.505703    22.160462   0.30767511    435.76752   -1943.4305 
    9000   -102548.63   -92964.687    232.76716    20721    226698.61    5.2941614    87.085931    65.051955    -136.2554     435.3221    23.502621    22.157556   0.37655089    435.69865    -1965.553 
    9100   -102575.58   -92949.733    233.78505    20721    226701.32     61.17548    156.16741    -57.02777      84.3868    435.29468    23.503501    22.158386   0.39025775    435.68494   -1983.7062 
    9200   -102639.13   -92896.132    236.63019    20721    226774.22   -16.382211   -71.286074    43.920742     -21.7813    435.47465    23.502422    22.157369   0.30027333    435.77493   -2032.1953 
    9300   -102546.31   -92908.889    234.06616    20721    226687.51    118.17921    96.290515    376.12837   -117.88125    435.49262    23.497443    22.152675   0.29128986    435.78391   -2028.5559 
    9400   -102652.24   -92907.663    236.66872    20721    226587.81    20.544015    28.247771    23.052242    10.332033    435.43582    23.493808    22.149248   0.31969096    435.75551   -2029.3316 
    9500    -102481.8   -92923.119    232.15365    20721    226596.42    104.76321    176.98272    275.08162   -137.77472    435.20105    23.500591    22.155642   0.43707703    435.63812   -2017.3813 
    9600   -102392.62   -92869.419    231.29191    20721    226690.15    107.81344    143.61266    408.32192   -228.49427    435.29531    23.502905    22.157824    0.3899441    435.68526   -2070.0063 
    9700      -102493   -92855.293     234.0731    20721    226712.49   -11.829308   -125.95209     72.51444    17.949723    435.45477    23.499759    22.154858   0.31021331    435.76499   -2079.6671 
    9800   -102599.34   -92854.188    236.68254    20721    226664.46   -6.5805005    83.886615    73.118529   -176.74665    435.37721    23.499363    22.154485   0.34899346    435.72621   -2086.0543 
    9900   -102483.04   -92816.029    234.78465    20721    226783.32     13.68547    146.62143    47.430144   -152.99517    435.18004    23.510848    22.165312   0.44757799    435.62762   -2121.6277 
   10000   -102497.04   -92788.302    235.79815    20721    226644.62   -12.185748    69.447415    39.199974   -145.20463    435.16918     23.50395     22.15881   0.45300772    435.62219   -2153.7927 
   10100   -102516.32   -92772.115    236.65957    20721    226742.61   -11.677851    133.86779    -235.3426    66.441257    435.29867    23.505534    22.160303   0.38826458    435.68694   -2167.6234 
   10200   -102366.16     -92795.8    232.43739    20721    226688.11    96.847244    103.12755    91.777369    95.636812     435.3712    23.500751    22.155793   0.35199772     435.7232   -2148.5517 
   10300   -102469.22   -92803.339    234.75729    20721    226640.99    -6.056966   -37.669264    193.51128   -174.01291    435.23991    23.501852    22.156832   0.41764672    435.65755   -2141.1619 
   10400   -102459.27   -92757.039    235.64012    20721    226633.51   -81.325328   -88.162102    90.317088   -246.13097     435.2693    23.500671    22.155718   0.40295209    435.67225   -2184.7066 
   10500   -102481.62   -92751.628    236.31446    20721    226685.37    89.779728    192.54879   -160.36339    237.15378    435.25873    23.503645    22.158522   0.40823606    435.66696   -2198.5551 
   10600   -102431.18   -92736.792    235.44969    20721    226497.63   -20.500595   -202.59955    126.70202    14.395739    435.22727    23.494759    22.150145   0.42396578    435.65123   -2212.4331 
   10700   -102485.27   -92719.207    237.19055    20721    226454.03    -23.15918   -90.354041     327.5157    -306.6392    435.19968    23.493243    22.148715   0.43776212    435.63744    -2234.103 
   10800   -102445.55   -92704.949    236.57209    20721    226528.68   -48.283139   -57.540672    -82.82943   -4.4793147    435.25183    23.495707    22.151038   0.41168278    435.66352    -2245.626 
   10900    -102453.5   -92685.576    237.23567    20721    226609.81   -128.59905   -107.41394     93.85234   -372.23554    435.25663    23.499784    22.154882   0.40928356    435.66592   -2258.7904 
   11000   -102462.94   -92714.187    236.77015    20721     226601.4   -25.475687   -29.457878   -163.28334    116.31416    435.05072    23.504909    22.159713   0.51224091    435.56296   -2235.3512 
   11100   -102374.11   -92713.029    234.64062    20721    226688.72   -4.2654585   -25.833567    28.306095   -15.268903    435.33461     23.50177    22.156754   0.37029354    435.70491   -2237.1733 
   11200   -102397.05   -92688.542    235.79271    20721    226436.04    50.091505   -147.34419     121.5471     176.0716    435.00354    23.497604    22.152827    0.5358287    435.53937   -2272.2858 
   11300   -102417.97   -92640.442    237.46895    20721    226673.54    62.862546     165.0708     134.0611   -110.54426    435.16198    23.505644    22.160406   0.45660858    435.61859   -2315.5891 
   11400   -102323.64   -92635.128    235.30686    20721     226623.7   -25.743849     66.70349    72.957468   -216.89251    435.38134    23.497138    22.152388   0.34693123    435.72827   -2318.1619 
   11500   -102286.08   -92612.486     234.9446    20721    226738.27    102.60859    158.89798    37.290247    111.63754    435.23312    23.507079    22.161759   0.42104011    435.65416   -2344.4116 
   11600   -102292.83   -92591.095     235.6282    20721    226707.44    10.525755   -89.817505   -75.027741    196.42251    434.90583    23.514323    22.168589   0.58468326    435.49052   -2363.4993 
   11700   -102344.96   -92613.369     236.3533    20721     226503.6   -59.133256   -217.47778   -81.424615    121.50263    434.90932    23.503656    22.158532   0.58294022    435.49226   -2346.7117 
   11800   -102429.24   -92650.266    237.50395    20721    226661.34     12.98081    19.525054    151.80289   -132.38551    435.05924    23.507787    22.162427   0.50798221    435.56722   -2309.2522 
   11900   -102320.09   -92575.456    236.67003    20721    226587.47   -83.417472   -11.403322    40.568031   -279.41712    434.96716    23.506444     22.16116   0.55402083    435.52118   -2380.7195 
   12000   -102319.19   -92561.056    236.99789    20721    226668.96   -24.430703    -12.46782    107.58747   -168.41176    434.96676    23.510681    22.165155   0.55422148    435.52098    -2397.264 
   12100   -102227.12   -92539.814    235.27769    20721    226503.37    1.1767153   -84.106445   -187.85595    275.49254    434.86659    23.504798    22.159609   0.60430592    435.47089   -2425.7616 
   12200   -102238.01   -92532.533    235.71893    20721    226659.87   -47.129265    103.47099   -277.83858    32.979796    434.92136    23.511436    22.165867   0.57691765    435.49828   -2427.3312 
   12300   -102286.03   -92534.966    236.82625    20721     226471.7   -18.254565   -93.119804   -41.446127    79.802235    434.79222    23.505165    22.159955   0.64149129    435.43371   -2432.1219 
   12400   -102279.92   -92512.368     237.2266    20721    226621.59   -65.435339    6.8130681   -171.44368   -31.675407    435.24417    23.500731    22.155775   0.41551253    435.65969   -2448.9776 
   12500    -102346.4   -92517.928    238.70615    20721    226421.41    -35.29208   -88.231063   -2.3377379   -15.307439    434.79635    23.502444    22.157389   0.63942295    435.43578   -2454.9656 
   12600   -102283.38   -92537.908    236.69038    20721    226447.53   -28.577421   -28.129255   -46.019354   -11.583653     434.8541    23.502238    22.157196   0.61055244    435.46465   -2432.9146 
   12700   -102198.14    -92475.88    236.12671    20721     226525.5   -3.4440214    223.17148   -104.16467   -129.33888    435.00301    23.502261    22.157217   0.53609635     435.5391   -2494.5632 
   12800   -102219.78   -92445.331      237.394    20721    226568.58    15.886431   -16.588923    90.524316   -26.276099    435.05335    23.503135    22.158041   0.51092371    435.56428   -2525.9921 
   12900   -102147.31   -92398.963    236.76008    20721    226526.87     88.52128    183.98221    33.874825    47.706808    434.84339    23.506644     22.16135   0.61590715    435.45929   -2578.9571 
   13000   -102119.24   -92377.105    236.60922    20721     226562.2    60.391306   -84.267268    0.4731086    264.96808     435.0433    23.503076    22.157985   0.51594808    435.55925   -2599.3041 
   13100   -102094.89   -92398.467    235.49913    20721    226529.04    46.115428    94.171904     14.84687    29.327511    434.88674    23.505585    22.160351   0.59423178    435.48097   -2576.7697 
   13200   -102081.12   -92377.625    235.67087    20721    226558.52    48.365337    66.906864    33.139016    45.050132    435.06558    23.502283    22.157238   0.50480831    435.57039   -2599.1645 
   13300   -102077.67   -92331.758    236.70095    20721    226437.97    15.089907    6.9715217   -100.99239    139.29059    435.02612    23.497095    22.152347   0.52453958    435.55066   -2649.6647 
   13400   -102135.43   -92326.051     238.2425    20721    226649.49   -8.8240935   -164.40823    229.71315   -91.777195    434.72495    23.516209    22.170367   0.67512651    435.40007   -2647.8726 
   13500   -102097.65   -92320.995    237.44775    20721    226433.03    8.0725816    131.79519    199.28422   -306.86167    434.90782    23.500034    22.155118   0.58368974    435.49151   -2662.4931 
   13600   -102176.78   -92297.037    239.95133    20721     226542.8   -44.802882   -196.30733   -67.497234    129.39592    435.05434    23.501771    22.156755   0.51043056    435.56477   -2683.1672 
   13700   -102066.89   -92260.276    238.17528    20721    226629.42    44.608486   -25.009224    164.31199   -5.4773065    434.92681     23.50971     22.16424    0.5741947    435.50101   -2720.6474 
   13800   -102079.29   -92269.413    238.25453    20721    226540.87   0.90952413    165.71589    62.421923   -225.40925    434.77585    23.509197    22.163756   0.64967637    435.42552   -2710.9819 
   13900   -102036.08   -92232.021    238.11329    20721    226528.37    -2.147394     213.5189    30.122764   -250.08384    435.02228    23.501889    22.156866   0.52645863    435.54874   -2751.7162 
   14000   -102058.98   -92240.994    238.45157    20721     226633.8    41.671025    92.546205    109.79211   -77.325235    435.23558    23.501597    22.156591   0.41981166    435.65539   -2742.1644 
   14100   -101980.34    -92203.26    237.45798    20721    226330.94    2.1278175   -3.2897605   -200.46522    210.13843    434.86215     23.49597    22.151286    0.6065232    435.46868   -2788.3255 
   14200   -101983.87   -92207.515    237.44029    20721    226477.87    7.2977417   -108.18511   -9.8145903    139.89293     434.9025    23.502505    22.157447   0.58635024    435.48885   -2781.8551 
   14300   -102125.91   -92231.343    240.31156    20721    226436.69   -41.033617     55.25513    234.69431   -413.05029    434.90161    23.500392    22.155455   0.58679595     435.4884   -2757.5038 
   14400   -102062.45   -92215.068    239.16542    20721    226484.13    48.747882    109.64816    172.73227   -136.13678    434.78279    23.506065    22.160803   0.64620574    435.42899   -2779.8063 
   14500   -102013.95   -92196.907    238.42855    20721    226293.37   -30.707958    90.199431   -147.63599   -34.687313    434.64836    23.499797    22.154894   0.71341796    435.36178    -2800.929 
   14600   -102067.56   -92181.346     240.1086    20721    226448.21   -66.998002   -124.27708   -161.94376    85.226835    434.69116    23.506678    22.161381   0.69201833    435.38318   -2810.0262 
   14700   -101990.32   -92218.028     237.3418    20721    226517.57     18.95951    210.56913    8.2705892   -161.96119    434.63534    23.511787    22.166198   0.71993057    435.35527   -2776.5417 
   14800   -101943.91   -92149.474    237.87948    20721    226415.13    -42.59666   -122.92998   -161.24265    156.38265    434.44335    23.511664    22.166082   0.81592625    435.25927   -2845.6038 
   14900   -101948.07   -92189.833    237.00028    20721    226455.35    66.344296   -88.585405    15.208236    272.41006    434.62354    23.508877    22.163455   0.72583106    435.34937   -2809.8374 
   15000   -102052.92   -92155.887    240.37135    20721    226551.18   -76.958258    48.600079   -15.325723   -264.14913     434.8003    23.509071    22.163637   0.63745105    435.43775   -2836.8597 
   15100    -101919.6   -92194.931    236.18522    20721    226609.13    43.131705   -61.358565   -83.140312    273.89399    434.81603    23.511652    22.166071   0.62958564    435.44561   -2802.2562 
   15200    -101965.5   -92147.888     238.4424    20721     226441.6    63.661669    171.69904    6.7701621    12.515802    434.71898    23.505583    22.160349   0.67810942    435.39709   -2855.8869 
   15300   -101944.64    -92178.61    237.18976    20721    226564.47   -89.833469   -61.400163    18.178046   -226.27829    435.01936     23.50384    22.158706   0.52792052    435.54728   -2814.0267 
   15400   -101998.07   -92128.426    239.70617    20721    226553.84    52.457266   -101.07483    343.70675   -85.260129    434.63128    23.513779    22.168076   0.72195914    435.35324   -2874.3467 
   15500   -101998.74   -92138.148    239.48634    20721    226513.47   -42.598744   -84.581139   -147.99727    104.78218    434.82064    23.506564    22.161274   0.62727917    435.44792   -2863.1249 
   15600   -101936.34   -92116.544    238.49552    20721    226455.74    64.783036     191.4685   -252.09786    254.97847    434.71163    23.506515    22.161228   0.68178742    435.39341   -2893.2983 
   15700   -101960.09   -92110.521    239.21852    20721    226381.56   -3.9451005   -113.42389   -226.91971    328.50829    434.68695    23.503332    22.158227   0.69412642    435.38107   -2896.4492 
   15800   -101975.41   -92086.803     240.1667    20721    226438.82    -60.00392    115.10036   -174.67038   -120.44174    434.81727    23.502782    22.157708   0.62896345    435.44624   -2917.1264 
   15900   -101986.36   -92123.686    239.53693    20721    226333.96     46.56246    116.93226   -61.366824    84.121942    434.62581    23.502514    22.157456   0.72469487    435.35051   -2892.0221 
   16000   -101974.05   -92085.131    240.17431    20721    226221.57   -24.795023    77.687066    105.48764   -257.55978    434.38417    23.503213    22.158114   0.84551603    435.22968   -2932.7835 
   16100   -102048.27   -92071.637    242.30462    20721    226289.73   -15.670025     20.40334    199.26747   -266.68089    434.24284    23.510578    22.165058   0.91618016    435.15902    -2943.925 
   16200   -101898.43   -92050.566    239.17727    20721     226209.5    19.231304    12.951698    16.813828    27.928387    434.34087    23.503757    22.158628   0.86716514    435.20803   -2969.3864 
   16300   -101920.03   -92036.064     240.0539    20721    226360.87      30.9665    50.323267   -56.563343    99.139577    434.43693     23.50902    22.163589   0.81913673    435.25606   -2981.9258 
   16400   -101839.83   -92011.689    238.69805    20721    226217.86    15.058078    114.43924   -57.127883   -12.137119    434.52859    23.499114     22.15425   0.77330342     435.3019   -3007.7448 
   16500   -101808.26   -92001.788    238.17177    20721    226301.72    75.308479    163.91428    61.890154   0.12099888    434.30165    23.509609    22.164145   0.88677728    435.18842   -3020.7666 
   16600   -101841.39   -91989.577    239.27308    20721    226198.35  -0.18488842    18.342702   -70.002997     51.10563    434.29772    23.504345    22.159182   0.88873979    435.18646   -3033.7164 
   16700   -101912.02   -91987.795    241.03166    20721    226250.28   -12.859499   -111.08513    121.44345   -48.936825    434.31139    23.506673    22.161377   0.88190374     435.1933   -3037.6373 
   16800   -101889.69   -91951.522    241.37034    20721     226359.4     -87.7549   -222.07276     12.17887   -53.370815    434.68496    23.502235    22.157193   0.69511883    435.38008   -3064.5864 
   16900   -101813.71   -91950.038    239.56117    20721    226225.36    48.558751     17.31968    -60.17859    188.53516    434.29889    23.505717    22.160475   0.88815475    435.18705   -3076.8345 
   17000   -101902.07   -91963.264    241.38592    20721    226327.94   -96.107395   -6.8780422   -127.02908   -154.41506    434.41206    23.507983    22.162611   0.83157026    435.24363   -3059.1454 
   17100   -101720.85   -91935.087    237.66896    20721    226349.05    7.5644587    195.24994   -5.9396966   -166.61687    434.66683    23.502189    22.157149   0.70418531    435.37101   -3090.6855 
   17200   -101876.04   -91966.971    240.66359    20721    226314.03     12.68877    42.252087    147.04923   -151.23501    434.33693    23.509293    22.163847    0.8691341    435.20607   -3062.4504 
   17300   -101860.64   -91953.648    240.61322    20721    226301.66    78.228662    133.60362    5.9349124    95.147457    434.38255    23.507416    22.162077   0.84632423    435.22888   -3080.6253 
   17400   -101775.95   -91948.685    238.67677    20721    226301.51     35.20494   -74.878934    40.851333    139.64242    434.42429    23.506279    22.161005   0.82545251    435.24975   -3084.4545 
   17500   -101867.18   -91888.807    242.34681    20721    226572.69   -111.27736   -186.76834    -86.59767   -60.466075    434.56591    23.516526    22.170666   0.75464257    435.32056    -3131.064 
   17600   -101803.45   -91942.958    239.48399    20721    226498.21    38.438808    154.51998   -124.46123    85.257666    434.57268    23.512477    22.166849   0.75125972    435.32394   -3084.5511 
   17700   -101852.36    -91937.36    240.80773    20721    226323.95   -9.1693998   -136.40716   -64.393893    173.29286    434.50931    23.505145    22.159936   0.78294697    435.29225   -3095.9848 
   17800   -101815.85   -91908.524    240.62137    20721    226575.62    20.766744   -17.595801   -19.410152    99.306184    434.73323    23.512152    22.166542    0.6709862    435.40421   -3118.7462 
   17900   -101730.01   -91881.822    239.18507    20721    226218.44   -1.3081904    117.39421    58.921603   -180.24038    434.36203    23.503649    22.158525   0.85658389    435.21862   -3155.8801 
   18000   -101767.55   -91876.415    240.22811    20721    226261.63   -26.222352     157.5602    45.373824   -281.60109    434.55866    23.500574    22.155626    0.7582709    435.31693   -3159.4777 
   18100   -101798.65   -91852.385    241.56715    20721    226220.45    -68.98858   -126.62502   -163.82931    83.488599    434.30474    23.505304    22.160086   0.88522952    435.18997   -3185.7524 
   18200   -101928.09   -91886.902    243.87236    20721    226169.87   -71.274685   -58.512263   -144.79226   -10.519527    434.05111    23.509541    22.164081    1.0120442    435.06316    -3155.151 
   18300   -101812.62   -91890.743    240.97467    20721    226101.29   -102.89038   -174.17852    -18.02048   -116.47212      433.835    23.511831    22.166239    1.1201021     434.9551   -3151.4118 
   18400   -101706.92   -91842.526    239.57865    20721    226110.77    119.61224    205.88441    35.957328    116.99499    434.25455    23.500963    22.155993    0.9103262    435.16487   -3210.8653 
   18500   -101739.96   -91853.085     240.1246    20721    226197.06   -38.588787    73.176591    -103.1332   -85.809756    434.25648    23.505394    22.160171   0.90935861    435.16584   -3191.7515 
   18600   -101683.76   -91840.009    239.07724    20721     226031.8   -62.797472    73.726908   -191.29126   -70.828061    434.18001    23.498875    22.154025   0.94759606     435.1276   -3209.0819 
   18700   -101711.48   -91826.926    240.06839    20721     226140.4    102.19332     229.4204   -14.932878    92.092426    433.87844    23.512687    22.167046    1.0983824    434.97682   -3229.7992 
   18800   -101809.19   -91844.569    242.01284    20721    226175.78     1.053646   -110.57296    76.196976    37.536925    434.03955    23.510161    22.164665    1.0178242    435.05738   -3208.1155 
   18900   -101657.92   -91806.685    239.25911    20721    226080.11    24.237994    179.89807   0.91860684    -108.1027    434.14158    23.502427    22.157373   0.96681084    435.10839   -3250.8551 
   19000    -101714.5   -91800.352    240.78702    20721     226139.4   -18.396419   -77.678952   -69.991996    92.481693    434.08728    23.506978    22.161664   0.99395844    435.08124   -3252.9548 
   19100   -101719.23   -91797.893    240.96168    20721    225955.28   -22.120471   -30.412847     225.5653   -261.51386    433.89623    23.502579    22.157517    1.0894875    434.98571   -3261.4064 
   19200   -101710.83   -91768.222    241.47821    20721    226122.82   -37.604875   -193.86825   -219.17037    300.22399     434.0755    23.506436    22.161153    0.9998514    435.07535   -3286.5572 
   19300   -101613.36   -91773.649    238.97918    20721    225846.27    21.480436   -128.23837    80.628568    112.05111    433.76227    23.500537    22.155592    1.1564675    434.91873   -3292.5268 
   19400   -101670.57   -91770.309    240.44966    20721    225942.58   -9.7074988    98.806596    11.914238   -139.84333    433.85067    23.503153    22.158058    1.1122662    434.96293   -3293.8298 
   19500   -101708.29   -91763.426    241.53297    20721    225905.15    46.260944   -64.260366    16.131739    186.91146    433.91963    23.499338    22.154462    1.0777826    434.99742   -3304.8804 
   19600   -101712.08   -91754.112     241.8512    20721    225905.51   -48.821789   -56.245285    46.168574   -136.38866    433.88272    23.500357    22.155422    1.0962417    434.97896     -3311.39 
   19700   -101681.39   -91755.812    241.06473    20721    225892.94    34.512875   -122.41704    121.61764    104.33801    433.73259     23.50377    22.158639    1.1713044     434.9039   -3314.9344 
   19800   -101637.29   -91697.201      241.417    20721    225985.56    -13.13181    3.3637083   -179.34726    136.58812    434.03385    23.500427    22.155488    1.0206748    435.05453   -3367.7587 
   19900    -101696.3   -91728.982    242.07849    20721    225946.51    30.280295    52.772962   -141.59421    179.66213    433.77486    23.505411    22.160187    1.1501696    434.92503   -3342.4633 
   20000   -101651.55   -91714.401    241.34578    20721    225885.36   -6.5640077   -21.562952   -126.71551    128.58644    433.78778     23.50188    22.156858    1.1437114    434.93149   -3356.7531 
   20100   -101666.42   -91679.865    242.54558    20721    225980.79    -21.32023    192.36263    -180.9029   -75.420421    433.87342    23.504523     22.15935    1.1008914    434.97431   -3388.5712 
   20200   -101714.12   -91688.227    243.50096    20721    226062.61   -81.381882   -348.40462  -0.92111873    105.18009    433.77064    23.511563    22.165987    1.1522801    434.92292   -3377.2534 
   20300   -101663.66   -91738.173     241.0624    20721    225880.37     39.45264    174.78998    116.80014    -173.2322    433.66929    23.504831     22.15964     1.202953    434.87225   -3340.1766 
   20400   -101722.75   -91727.918     242.7466    20721    226136.25   -12.221791    -107.3083    54.588566    16.054364    433.90053    23.511872    22.166278    1.0873354    434.98786   -3339.4238 
   20500   -101576.53   -91717.897    239.43861    20721    225626.72    41.367523    52.656723    23.755284    47.690562    433.43441    23.497994    22.153195    1.3203949    434.75481   -3368.1564 
   20600   -101726.93   -91710.879    243.26209    20721    226141.16   -11.877524    53.618701   -224.29207    135.04079    433.81518     23.51444      22.1687    1.1300087    434.94519   -3361.5848 
   20700   -101750.65   -91699.311    244.11908    20721    226095.23   -80.334919   -36.448268   -293.51883     88.96234    433.75065    23.513801    22.168097    1.1622743    434.91293   -3371.8359 
   20800   -101629.95   -91700.188    241.16627    20721    226084.68    1.3662663    97.356112    23.314962   -116.57228    433.58711    23.517687     22.17176    1.2440455    434.83115   -3376.7851 
   20900   -101633.01   -91649.883    242.46228    20721    226226.98   -77.281403   -145.66076   -104.92858    18.745132    433.88373    23.517044    22.171154    1.0957368    434.97946   -3416.9018 
   21000   -101534.62   -91646.907    240.14496    20721    225929.28    1.1960753   -107.56559    78.699941    32.453876    433.86963    23.501947    22.156922    1.1027866    434.97241   -3432.6258 
   21100   -101632.41   -91630.067    242.92913    20721       226035   -58.496514   -26.817482   -29.880843   -118.79122    433.80282    23.509256    22.163811    1.1361925    434.93901   -3446.9942 
   21200   -101694.21   -91655.182    243.82011    20721    226189.96  -0.18127172   -157.01554    318.21637   -161.74464     433.9594     23.51307    22.167407    1.0578982     435.0173   -3419.6601 
   21300   -101625.95   -91625.142    242.89186    20721     225993.1   -50.112396    131.25885   -129.45983   -152.13621    433.84873    23.505833    22.160584    1.1132363    434.96196   -3456.3233 
   21400   -101577.71   -91609.374    242.10302    20721    226033.16   -19.153902   -22.591766    67.352972   -102.22291    433.73462    23.511008    22.165464    1.1702878    434.90491   -3471.7762 
   21500   -101629.84   -91615.557    243.21893    20721    226154.72  -0.41665476    83.864961    43.399382   -128.51431    433.73957    23.517195    22.171297    1.1678162    434.90738   -3463.4262 
   21600   -101559.94   -91601.398    241.86523    20721    226119.29   -78.036914   -136.67912   -203.49605    106.06442    433.57514    23.519812    22.173763    1.2500319    434.82517   -3475.7068 
   21700   -101509.35   -91574.701    241.28494    20721     225909.9    12.926941   -121.22632    309.54941   -149.54226    433.52136    23.510377    22.164869    1.2769205    434.79828   -3513.6862 
   21800   -101597.26   -91544.998    244.14147    20721    225993.01   -20.504745    47.415906    278.91581   -387.84595    433.63841    23.511528    22.165954     1.218395     434.8568   -3543.3249 
   21900   -101499.55   -91533.558    242.04608    20721    225924.82   -51.089833   -100.39484   -116.23219    63.357532    433.66028    23.507387     22.16205    1.2074587    434.86774   -3556.3322 
   22000   -101556.04   -91547.338    243.08351    20721    225863.27   -68.065456    2.8892016   -208.53027    1.4446961    433.65492     23.50433    22.159168    1.2101393    434.86506   -3547.1775 
   22100   -101560.88    -91552.29    243.08082    20721    226092.84    42.314653     118.6702    37.028089   -28.754331    433.92895    23.508846    22.163425    1.0731257    435.00207   -3540.6162 
   22200   -101449.07    -91495.87    241.73548    20721    225753.84   -7.9389889    160.11044   -73.980863   -109.94654    433.70475    23.497286    22.152527    1.1852262    434.88997    -3603.205 
   22300   -101639.19   -91529.525    245.53554    20721    225820.49   -73.858874   -161.55599   -179.63881    119.61818    433.74975    23.499535    22.154647    1.1627235    434.91248   -3568.3437 
   22400   -101461.46   -91507.129    241.76307    20721    225745.71     28.40639    67.350203    131.03173   -113.16276    433.56597    23.500623    22.155673    1.2546145    434.82059   -3596.9534 
   22500   -101489.17   -91533.195    241.80298    20721     225791.4   -21.722547   -115.23538   -83.906634    133.97438    433.42401     23.50685    22.161543     1.325597     434.7496   -3570.8075 
   22600   -101461.63   -91486.018    242.27974    20721    225741.14    0.2363479    21.841353   -88.254327    67.122018    433.15918    23.511417     22.16585    1.4580084    434.61719   -3619.1146 
   22700   -101508.53   -91472.708    243.74213    20721    225845.92     26.12625   -36.727805    23.512118    91.594438    433.63918    23.503854    22.158719    1.2180091    434.85719   -3632.4606 
   22800   -101509.28   -91494.701    243.22624    20721    225875.08   -20.463079   -10.700887    2.0021628   -52.690512    433.53459    23.508207    22.162823     1.270303     434.8049   -3608.6274 
   22900   -101487.61   -91445.026    243.90635    20721    225903.34    51.880237   -35.099828    17.557394    173.18315    433.44092    23.512217    22.166604    1.3171386    434.75806   -3660.4609 
   23000    -101399.1   -91456.928     241.4676    20721    225886.12   -64.036876   -87.574661   -71.914181   -32.621786    433.68791    23.504625    22.159446    1.1936427    434.88156   -3643.8336 
   23100   -101505.27   -91409.638    245.19489    20721    226111.75   -67.552077   -104.40145   -54.875913   -43.378864    433.83298    23.512429    22.166804    1.1211103    434.95409   -3688.0909 
   23200   -101488.66   -91466.318    243.41465    20721    226077.88    40.888703    40.593064   -174.08931    256.16236    433.77233    23.512312    22.166693    1.1514373    434.92376   -3637.8008 
   23300   -101451.87   -91440.725    243.14283    20721    225906.21    10.726397   -174.07386    111.67183    94.581222    433.87284     23.50066    22.155708    1.1011793    434.97402   -3667.1553 
   23400   -101480.57   -91413.427    244.50294    20721    225868.18    11.825329    149.75997    202.62347   -316.90745    433.84383    23.499468    22.154584    1.1156861    434.95951   -3696.9353 
   23500   -101529.46   -91463.408    244.47634    20721    226039.34   -17.704817   -137.81374    231.29355   -146.59426    433.74698    23.510994    22.165451      1.16411    434.91109   -3642.1523 
   23600   -101449.59   -91463.897    242.52456    20721    225849.21    107.67605    345.19428    234.68704   -256.85315    433.92615    23.496252    22.151552    1.0745265    435.00067   -3654.3018 
   23700   -101431.75   -91459.909    242.18813    20721    226014.54    14.145326   -8.8802788    81.093662   -29.777406    434.21233    23.497103    22.152355   0.93143529    435.14376   -3651.9178 
   23800   -101516.67   -91467.665    244.06229    20721    225916.94   -68.662227    175.55554   -310.04205   -71.500169    434.00212    23.497718    22.152934    1.0365414    435.03866   -3643.8198 
   23900   -101417.98    -91432.54    242.51851    20721    225991.05    8.9713448    22.697002    69.279948   -65.062916    434.24139    23.495096    22.150463   0.91690359     435.1583   -3685.1211 
   24000   -101474.33   -91411.318    244.40261    20721    226030.39   -60.616598    89.150706   -157.55484   -113.44566    434.06055    23.502035    22.157004    1.0073266    435.06787   -3701.8949 
   24100   -101489.42   -91439.299     244.0894    20721    226028.25    77.003676    66.376515   -112.00473    276.63924     434.1317    23.499998    22.155084   0.97175146    435.10345   -3682.6838 
   24200   -101447.09   -91399.545    244.02687    20721    226050.75   -63.702105   -68.651205   -13.141023   -109.31409    434.21343    23.498956    22.154101   0.93088551    435.14431   -3714.7454 
   24300   -101452.32   -91390.502    244.37341    20721    226103.71    16.898515   -87.588357   -56.057602     194.3415    434.09638    23.504877    22.159683   0.98941164    435.08579   -3725.7415 
   24400   -101479.02   -91372.681     245.4548    20721    226145.92    16.241494    140.70243    33.199788   -125.17773    434.11951    23.506444    22.161161   0.97784577    435.09735   -3744.9375 
   24500   -101363.69   -91375.136    242.59413    20721    225991.66    18.464142   -168.11916    121.90649     101.6051    433.92649    23.503652    22.158528    1.0743568    435.00084   -3746.4765 
   24600   -101421.55   -91387.507    243.69892    20721    226065.71    -12.80323    -45.27096    83.979015   -77.117744     434.1152    23.502392    22.157341   0.98000105     435.0952    -3731.594 
   24700   -101331.63   -91356.667    242.26405    20721    226077.92   -60.920792   -111.45259    34.647411    -105.9572    434.11782    23.502956    22.157872   0.97869074    435.09651   -3760.1198 
   24800   -101352.57   -91341.049    243.15187    20721    225970.56     12.45178   -113.71844   -7.5208753    158.59466    434.07159    23.498626     22.15379    1.0018066    435.07339   -3785.5953 
   24900   -101329.97   -91328.141    242.91666    20721    226202.41   -16.245705    72.171473   -292.49981    171.59122    434.15402    23.508446    22.163048     0.960591    435.11461   -3789.0584 
   25000   -101465.92   -91342.415    245.87181    20721    226006.61   -97.099456   -132.46752    285.68571   -444.51656    434.26545    23.495254    22.150611   0.90487577    435.17032   -3780.2217 
   25100   -101374.85   -91287.419    244.99548    20721    226242.06   -9.4278845    28.623095    149.01405    -205.9208    434.17477    23.509944     22.16446   0.95021483    435.12499   -3832.1051 
   25200   -101239.97   -91283.215    241.82179    20721    225992.94    39.370711    76.408552     148.8915   -107.18792      434.194    23.496477    22.151764   0.94060126     435.1346   -3845.6039 
   25300   -101244.33    -91297.45    241.58198    20721    225964.31    89.502287    170.41638    183.98623   -85.895744    434.24067    23.493726     22.14917    0.9172644    435.15794   -3836.2537 
   25400   -101407.81   -91306.601    245.33029    20721    225908.21   -28.793099   -53.270091    139.48764   -172.59685    434.31853    23.488704    22.144436   0.87833574    435.19686   -3824.2359 
   25500   -101339.96   -91280.057    244.32692    20721    226161.27    67.702274    136.41242    60.834051    5.8603554    434.36375    23.500632    22.155682   0.85572417    435.21948   -3849.0359 
   25600    -101215.6   -91252.556    241.97454    20721    225860.32    61.360786   -87.957547    131.48991       140.55    433.93615    23.496559    22.151842    1.0695245    435.00568   -3885.7756 
   25700   -101354.06   -91230.252    245.87917    20721       226070    46.641774    192.76962    92.405637   -145.24994    434.09112    23.503267    22.158166   0.99204124    435.08316   -3902.1732 
   25800    -101402.9   -91262.225    246.28863    20721    225849.57   -43.995119   -133.03386   -110.53868    111.58718    434.00234    23.494208    22.149625    1.0364306    435.03877    -3873.201 
   25900   -101298.24   -91228.827    244.55797    20721    226051.37    102.98028    28.685375    180.38532    99.870129     434.1072    23.501863    22.156842   0.98400212     435.0912   -3910.4325 
   26000   -101236.65   -91196.223    243.85391    20721    226040.46    15.319459    15.345671    81.387879   -50.775172    433.93032    23.506085    22.160823    1.0724401    435.00276   -3936.9495 
   26100   -101282.59    -91207.41    244.69804    20721     226183.3    25.863804    186.17863   -62.187872   -46.399346    434.06112    23.509968    22.164483    1.0070411    435.06816   -3925.0596 
   26200   -101310.31   -91193.704    245.70423    20721    226146.84    124.05917   -86.428198    399.04986    59.555855     434.1017    23.506975    22.161661   0.98675103    435.08845   -3947.0355 
   26300   -101320.58   -91212.485    245.49742    20721    225906.97   -10.838308   -0.1978033   -77.296931    44.979812    434.01823    23.496764    22.152034    1.0284867    435.04671   -3928.7175 
   26400   -101341.01   -91219.227    245.82996    20721    226217.29    42.518923    77.963266   -127.90726    177.50077    434.21218    23.507645    22.162293   0.93151127    435.14369   -3916.7664 
   26500    -101266.4   -91179.551    244.98143    20721    226134.26    68.785293    76.767486    124.86829    4.7201011    434.08159    23.506865    22.161557   0.99680497     435.0784   -3961.7018 
   26600   -101196.53   -91154.188    243.90041    20721    226176.86    23.263363   -6.2717633    348.27878   -272.21693    434.03956    23.510217    22.164718    1.0178181    435.05738   -3982.9469 
   26700   -101268.98   -91125.477    246.35752    20721    226217.26    49.465402    218.45957    94.744986   -164.80835    434.15526    23.509184    22.163744   0.95996755    435.11523    -4013.277 
   26800   -101214.11   -91096.154    245.73703    20721    226268.32   -4.3198378    29.591783    -137.5171    94.965804    434.19488    23.510764    22.165233   0.94016115    435.13504   -4041.2952 
   26900   -101205.14   -91116.753    245.01876    20721    226328.22    41.907405   -37.783982    144.43765    19.068544     434.2954    23.511154    22.165601   0.88990101     435.1853   -4021.1623 
   27000   -101269.12   -91133.308     246.1707    20721    226290.81   -24.220017   -188.73621    139.48989   -23.413726    434.36846    23.507234    22.161906    0.8533713    435.22183    -4004.311 
   27100   -101249.82   -91109.373    246.28331    20721    226245.79    16.746814    -21.02702   -56.450328    127.71779    434.22202    23.508859    22.163438   0.92659022    435.14861     -4033.78 
   27200   -101240.15   -91123.908    245.69522    20721    226247.75    23.688379    45.319105    13.968436    11.777596    434.30308    23.506767    22.161465   0.88605968    435.18914   -4018.8312 
   27300   -101238.66   -91167.682    244.59593    20721    226270.35   -40.916099    119.17548   -160.86945   -81.054328    434.26515    23.508967     22.16354   0.90502726    435.17017   -3973.9709 
   27400   -101244.08   -91166.414    244.75834    20721    226148.43   -49.353728     36.10132   -232.44268    48.280179    434.20092    23.504371    22.159206   0.93713909    435.13806   -3978.2917 
   27500   -101323.94    -91149.11    247.11836    20721    226283.09    13.517023   -63.717053   -35.931067    140.19919    434.45982    23.504361    22.159197   0.80769113    435.26751   -3996.8579 
   27600   -101122.11    -91119.83    242.92757    20721    226140.09    40.036453    5.5529343    118.67472   -4.1182943    434.22697    23.503233    22.158133   0.92411537    435.15108   -4031.5212 
   27700   -101285.68   -91073.404    248.02774    20721     226430.6   -44.412702   -118.12871   -140.07267    124.96328    434.13646    23.520776    22.174672   0.96937152    435.10583   -4066.0185 
   27800   -101200.61   -91096.919    245.39044    20721    226100.13   -23.251737   -55.235744   -77.698507    63.179041    433.75138    23.514036    22.168319    1.1619101    434.91329   -4053.8569 
   27900   -101197.24   -91070.721    245.94481    20721    226322.69     7.690289    116.05122   -75.454545   -17.525808     433.9733     23.51959    22.173555    1.0509482    435.02425   -4077.6722 
   28000   -101216.07   -91063.851    246.56909    20721    226055.58    20.645928    73.531588    97.584779   -109.17858    433.69293    23.513304    22.167628    1.1911337    434.88407   -4093.1136 
   28100   -101168.32   -91074.754    245.14468    20721    226157.27    12.865233    201.02049   -175.43069    13.005899    433.65853    23.519525    22.173493    1.2083355    434.86686   -4081.4241 
   28200   -101082.45   -91062.688    243.35208    20721    226067.36   0.98480487   -59.123498    92.308874   -30.230961    433.89901    23.508332    22.162941    1.0880952     434.9871   -4093.2854 
   28300   -101161.57   -91067.847    245.14841    20721    226117.94    53.403423   -69.025832   -55.201514    284.43762    433.78187    23.514136    22.168412    1.1466627    434.92854   -4092.6002 
   28400   -101227.22   -91056.659    247.01467    20721    225872.39   -4.4731025    55.395735    160.94369   -229.75873    433.62459    23.505627    22.160391    1.2253069    434.84989   -4109.2664 
   28500   -101161.28   -91017.864    246.35543    20721    226058.49    56.802279   -91.788863    74.582117    187.61358    433.70374    23.513162    22.167495    1.1857287    434.88947   -4145.3134 
   28600   -101190.23   -91040.634    246.50548    20721    226058.29   -4.0886768    89.302942    84.919951   -186.48892       433.92    23.507292     22.16196    1.0775985     434.9976   -4122.4221 
   28700   -101188.43   -91027.594    246.77833    20721    226108.12   -58.177189    20.878474   -122.34036   -73.069677    434.08658    23.505371    22.160149    0.9943105    435.08089   -4131.2257 
   28800   -101061.78   -90981.422    244.82389    20721    226111.93    -3.889182   -1.4505965   -4.3516126   -5.8653369    434.01536    23.507497    22.162154    1.0299183    435.04528    -4180.581 
   28900    -101176.1   -91012.071    246.85595    20721    225831.06   -38.599927     -124.092   -140.90245    149.19467    433.83273    23.497837    22.153047    1.1212335    434.95397   -4158.0973 
   29000   -101140.42   -91003.219     246.2044    20721    225947.85   -110.08865   -222.92261   -412.36166    305.01833    433.86351    23.503079    22.157988    1.1058443    434.96936   -4160.6918 
   29100   -101123.19    -90981.72    246.30794    20721     225938.8   -3.6805264   -195.27644   -97.046445    281.28131    433.78151    23.504829    22.159639    1.1468467    434.92835     -4188.65 
   29200   -101108.32   -90987.142    245.81526    20721    225822.41   -80.845207   -48.580516   -212.59662    18.641513    433.75543    23.499481    22.154596    1.1598874    434.91531   -4184.0619 
   29300    -101175.2   -90970.985    247.83206    20721    226006.19    96.432393    118.11188    404.31997   -233.13467    433.67585    23.511198    22.165643    1.1996747    434.87553   -4207.8318 
   29400   -101156.84   -90983.455    247.08312    20721    226013.76   -31.855065    5.5375229   -150.96104    49.858321    433.47244    23.517108    22.171214    1.3013815    434.77382   -4188.7616 
   29500    -101072.9   -91033.475    243.82962    20721    225716.99   -39.113329   -237.22537   -89.074062    208.95944    433.22388    23.508404    22.163009    1.4256622    434.64954   -4149.0611 
   29600   -101033.55   -90986.271    244.02038    20721    225962.89   -10.916135   -46.444171   -13.667793    27.363558    433.54337    23.512537    22.166906    1.2659126    434.80929   -4190.0309 
   29700   -101113.41    -90989.99     245.8696    20721    225859.86    9.4750117   -78.693005    71.271953    35.846087    433.63017    23.504824    22.159633     1.222513    434.85269   -4192.3605 
   29800   -101086.96   -90961.905    245.90947    20721    225859.51    -103.8349   -242.17951   -158.21597    88.890777    433.39143    23.511278    22.165718    1.3418841    434.73332   -4215.3306 
   29900   -101129.57   -90979.397    246.51946    20721    225895.83   -6.3553555    70.486607   -74.278504    -15.27417    433.49891    23.510254    22.164752    1.2881428    434.78706     -4203.38 
   30000   -101149.26   -90989.066    246.76282    20721    225860.31   -32.265246   -169.20717    39.504578    32.906854    433.48749    23.508715    22.163302    1.2938563    434.78134    -4194.478 
   30100   -101208.74   -90975.554     248.5355    20721    225878.49    34.993663    50.919291   -316.96688    371.02858     433.5296    23.508519    22.163117    1.2728018     434.8024   -4211.8035 
   30200   -101040.29   -90953.124     244.9892    20721    225833.31    87.068879    61.116354    4.9670585    195.12323    433.52689    23.506242     22.16097    1.2741545    434.80105   -4239.3389 
   30300   -101116.47   -90946.524     246.9997    20721    225846.76    -64.99823   -133.25557   -27.745435   -33.993685    433.46032    23.508746    22.163331    1.3074423    434.76776   -4238.2033 
   30400   -101142.22   -90937.839    247.83607    20721    225997.99    8.2742943   -63.304219    422.96025   -334.83315    433.50249    23.515472    22.169672    1.2863544    434.78885   -4245.8012 
   30500   -100974.19   -90949.735    243.46613    20721    225861.71    55.409404    46.003429    95.445098    24.779684    433.41215    23.510831    22.165297    1.3315235    434.74368   -4240.2884 
   30600   -101014.35   -90928.098    244.96695    20721    225681.34   -17.420772   -10.874478    94.890249   -136.27809    433.16329    23.508192    22.162808     1.455956    434.61924   -4264.3222 
   30700   -101071.16   -90893.986    247.17507    20721    225894.91   -16.436941    15.545105   -109.03687    44.180939    433.24742    23.517028     22.17114    1.4138893    434.66131    -4295.478 
   30800    -101057.3   -90921.364    246.17361    20721    225804.81    16.059004      182.912   -280.38022    145.64523     432.9062    23.521603    22.175452    1.5844982     434.4907   -4272.4181 
   30900   -101103.41   -90906.764    247.64813    20721    225787.68   -10.852182     184.3925   -378.33321    161.38417    433.01013    23.517888     22.17195    1.5325343    434.54267   -4289.0675 
   31000   -101077.15   -90900.885    247.15303    20721    225838.15    -79.76715   -188.12614   -355.95331      304.778    433.38224    23.510416    22.164905     1.346478    434.72872   -4289.9707 
   31100   -101122.54   -90891.928    248.47296    20721    225631.85    24.871452    40.341476    83.689168    -49.41629    433.15439    23.505855    22.160605    1.4604043     434.6148   -4314.5499 
   31200   -101043.47   -90907.247    246.18058    20721    225765.68    82.787499    100.96354    47.324421    100.07454    433.14708    23.513024    22.167364    1.4640604    434.61114   -4297.0115 
   31300   -101021.64    -90892.16    246.01676    20721    225647.05   -1.1415238  -0.86721552    -73.69458    71.137224    432.88384    23.513991    22.168276    1.5956786    434.47952   -4310.5269 
   31400   -100929.57   -90876.594    244.15888    20721    225689.79     3.585038   -87.165518    191.47553   -93.554898    432.93464    23.514839    22.169075    1.5702798    434.50492   -4326.9675 
   31500   -101108.12   -90870.006    248.65524    20721    225723.28   -23.202451    148.73549   -38.064597   -180.27824    433.12804    23.511333     22.16577    1.4735785    434.60162   -4334.9672 
   31600   -101028.56   -90839.634    247.46057    20721    225674.29   -40.451367   -72.383134   -195.03102    146.06005    432.85097    23.516304    22.170456    1.6121172    434.46308   -4365.5653 
   31700   -101091.74   -90842.607    248.92296    20721     225637.2   -13.449787    82.350517    114.60145   -237.30133    432.62261    23.520576    22.174484    1.7262935    434.34891   -4365.4112 
   31800   -101013.26   -90859.682    246.60215    20721    225604.68    77.021843    -14.75818   -68.033322    313.85703    432.82851    23.513287    22.167612    1.6233436    434.45186    -4355.585 
   31900   -100943.45   -90828.264    245.66957    20721    225617.85    11.257712   -21.412313    66.637346   -11.451896    432.86694    23.512929    22.167275    1.6041307    434.47107   -4383.8387 
   32000   -100996.93    -90798.34    247.69534    20721    225410.39   -12.335241   -82.591806   -103.15436    148.74044     432.6227     23.50875    22.163334    1.7262513    434.34895   -4419.5478 
   32100   -101008.07   -90808.761    247.71274    20721    225467.05   -48.487858   -102.54809   -87.804129    44.888643    432.51111    23.514737    22.168979    1.7820429    434.29316    -4407.744 
   32200   -100923.96   -90772.914    246.54064    20721    225420.87   -32.292645    84.953685   -82.025742   -99.805878    432.66029    23.508275    22.162887    1.7074535    434.36775   -4446.6827 
   32300   -101023.86   -90795.484     248.4188    20721    225567.46   -75.083739   -184.88427    213.52509   -253.89204    433.03588    23.505716    22.160475    1.5196583    434.55554   -4417.7738 
   32400   -100915.15   -90817.564    245.24215    20721    225505.04    64.000195    85.365455    274.11287   -167.47774    432.94088    23.505043     22.15984    1.5671621    434.50804   -4405.5968 
   32500   -100933.64   -90762.593     247.0265    20721     225436.6    25.359243    111.47609    108.22664     -143.625    432.75663    23.506478    22.161193    1.6592872    434.41591   -4462.0076 
   32600      -101016   -90717.843    250.11355    20721    225536.39   -69.731167   -105.07519    122.73352   -226.85182    432.86807    23.508653    22.163244    1.6035638    434.47164   -4501.4935 
   32700   -101002.72   -90772.745     248.4576    20721    225488.94   -13.052885   -40.124341   -121.79002    122.75571    432.94154    23.504186    22.159032    1.5668315    434.50837   -4452.3356 
   32800   -100879.09   -90735.156    246.36801    20721    225631.61    149.89855    90.035963    186.97865    172.68103    433.02575    23.509334    22.163885    1.5247241    434.55048    -4494.332 
   32900   -100991.04   -90739.136    248.99016    20721    225751.33   -66.233141   -35.139963   -17.802206   -145.75725    433.09884    23.513586    22.167894    1.4881804    434.58702   -4479.9129 
   33000   -100931.38   -90748.717    247.30841    20721    225724.32    19.080201     92.89677   -63.919355    28.263187    433.06886    23.512993    22.167335    1.5031683    434.57203   -4472.9735 
   33100   -100943.45   -90755.705    247.43205    20721     225798.4   -74.366942   -97.122526   -22.589509   -103.38879    433.09438    23.516158    22.170319    1.4904098    434.58479   -4462.0849 
   33200   -100961.91   -90740.487    248.24982    20721    225684.49    -33.06561   -117.76352   -10.733316    29.300005    433.25075    23.505983    22.160726    1.4122247    434.66298   -4483.7244 
   33300   -100955.58   -90713.741    248.74571    20721    225726.32    40.989544    75.974568    14.881981    32.112082    433.22516    23.508855    22.163434    1.4250188    434.65018   -4512.9528 
   33400   -100981.54   -90688.521    249.98886    20721    225621.01   -84.536517   -72.292047   -142.72364   -38.593858    433.11192    23.506443     22.16116    1.4816411    434.59356    -4538.446 
   33500   -100990.12   -90678.214    250.44751    20721     225756.2   -9.4785782   -22.993714    146.60858    -152.0506    433.39415    23.505827    22.160579    1.3405273    434.73467   -4549.6518 
   33600      -100853   -90682.234     247.0195    20721    225806.11    18.494854    23.723682    58.374519   -26.613639    433.35444    23.509502    22.164044    1.3603778    434.71482   -4544.4361 
   33700   -100828.91   -90682.299    246.43294    20721    225642.55   -22.794833    37.794008   -150.37432    44.195815    433.20111    23.505145    22.159936    1.4370449    434.63816   -4547.5043 
   33800   -100893.16   -90705.354    247.43352    20721    225824.11    61.423805   -19.131775   -113.03282    316.43601    432.93627    23.521791    22.175629    1.5694641    434.50574   -4526.0568 
   33900   -100974.48   -90725.414    248.92117    20721    225743.08    -88.53602   -246.18724   -190.54405    171.12323    432.96767    23.516718    22.170846    1.5537671    434.52143   -4501.9649 
   34000   -100873.23   -90707.908    246.88742    20721    225612.81   -15.261985   -106.47867    185.88475   -125.19203    432.91204    23.511442    22.165873    1.5815784    434.49362    -4527.868 
   34100   -100812.86   -90697.201    245.68123    20721    225735.32     108.0253    174.20053    58.792248    91.083116    432.89208    23.518367    22.172401    1.5915603    434.48364   -4541.3768 
   34200   -100901.04   -90633.593    249.36759    20721    225659.85   -10.340134    64.981736   -199.28643    103.28429    432.83142    23.516082    22.170247    1.6218879    434.45331   -4602.6246 
   34300   -100962.78   -90652.914    250.39787    20721    225706.73    -90.28002    77.012853   -193.55525   -154.29766    433.01553    23.513525    22.167836    1.5298344    434.54537   -4579.7882 
   34400   -100865.03   -90626.687    248.66072    20721    225545.72   -12.926892    98.277302     27.37177   -164.42975    433.01204    23.505231    22.160018    1.5315825    434.54362   -4613.6875 
   34500   -100802.34   -90646.466    246.65797    20721    225486.46   -67.873998   -123.22179   -243.77271    163.37251    432.81566    23.507474    22.162132    1.6297714    434.44543   -4594.0719 
   34600   -100910.57   -90660.809    248.93803    20721    225519.79   -43.744179   -190.15187    14.446114    44.473216    432.76993    23.510453    22.164941    1.6526329    434.42257   -4582.9407 
   34700   -100804.92   -90617.553    247.42265    20721    225485.42    18.946186   -41.556866   -99.741905    198.13733    432.71351    23.510194    22.164697    1.6808451    434.39435   -4629.2285 
   34800    -100823.1   -90648.382     247.1156    20721    225279.11   -33.506845   -110.76362    144.09539    -133.8523    432.50036    23.505226    22.160013    1.7874198    434.28778   -4603.2979 
   34900   -100865.57   -90611.778    249.03609    20721    225270.94    13.344217    20.235558    81.679404   -61.882311    432.44198    23.506387    22.161107    1.8166083    434.25859   -4644.5266 
   35000   -100872.79   -90600.133    249.49425    20721    225501.77   -18.005157    36.131169    192.44592   -282.59256    432.45426    23.518093    22.172143    1.8104703    434.26473   -4648.7107 
   35100   -100847.79   -90633.812    248.06916    20721    225419.75    43.468884   -25.555276   -87.139098    243.10103    432.44646    23.514028    22.168311    1.8143715    434.26083   -4619.7697 
   35200   -100897.42   -90631.582    249.32856    20721    225355.14   -101.76014    43.242618    47.785785   -396.30882    432.45292    23.510482    22.164968    1.8111388    434.26406    -4618.206 
   35300   -100796.56   -90610.963    247.37971    20721    225479.81    12.119363     104.9128    119.94536   -188.50007    432.82134    23.506973     22.16166    1.6269287    434.44827   -4641.9282 
   35400    -100805.3   -90598.974    247.88311    20721    225543.84    65.394698   -3.9325459    188.11486    12.001781    432.81443    23.510498    22.164983    1.6303873    434.44481   -4654.5731 
   35500   -100897.29   -90580.783    250.55931    20721    225559.63   -35.426505   -30.507811   0.94014788   -76.711853    432.73837    23.513387    22.167707    1.6684127    434.40679   -4669.6585 
   35600   -100881.57   -90585.236    250.06938    20721    225481.33    7.8031848   -224.75126    195.17094    52.989873    432.82907    23.506843    22.161536    1.6230644    434.45214   -4669.8927 
   35700   -100832.52    -90592.98    248.68997    20721     225620.3    37.666315    138.21201   -93.961496    68.748429    433.23591    23.503042    22.157954    1.4196464    434.65555   -4660.4629 
   35800    -100842.5   -90556.179    249.82598    20721    225568.15   -20.262982   -118.60855   -39.373942    97.193542    433.09137    23.504247    22.159089    1.4919157    434.58328   -4697.7739 
   35900   -100845.04   -90545.721    250.14178    20721     225624.6     -8.25634   -115.88156     73.27953    17.833008    433.19014    23.504508    22.159335    1.4425313    434.63267   -4707.7638 
   36000   -100900.92   -90584.201    250.56448    20721    225584.91   -128.56742   -45.815244    -415.6017    75.714678    433.18588    23.502556    22.157495    1.4446586    434.63054   -4666.4974 
[...]
  491300    -93406.76   -80615.374     310.6671    20721    221177.22    61.153811    225.78188    325.80792   -368.12836    422.68518    23.559111    22.210814      6.69501    429.38019   -22244.577 
  491400   -93430.286   -80660.812    310.13493    20721    221003.55   -45.591424   -43.107024    119.98823   -213.65548    422.22995    23.562551    22.214057    6.9226226    429.15258   -22203.558 
  491500   -93443.622   -80689.162    309.77028    20721    221349.29    109.77313    269.57134   -99.160114    158.90815    422.38499    23.576647    22.227346    6.8451029     429.2301    -22171.26 
  491600   -93373.544   -80644.924    309.14271    20721    221153.65   -36.924193   -186.49499    22.408386    53.314025    422.31045    23.568305    22.219482    6.8823743    429.19283   -22217.133 
  491700   -93452.401   -80625.482    311.53012    20721     221285.6   -103.74615   -260.15898    16.640034   -67.719488     421.9507    23.585383    22.235582    7.0622479    429.01295   -22231.653 
  491800   -93371.021   -80636.664    309.28204    20721     221082.1   -13.884869   -17.399463   -23.449689  -0.80545292    421.56512    23.585315    22.235518    7.2550423    428.82016   -22232.739 
  491900   -93425.053   -80622.146    310.94694    20721    221014.71    105.60284   -94.420364    65.408802    345.82008    420.98269    23.598027    22.247502    7.5462553    428.52894   -22259.919 
  492000   -93355.169   -80633.139    308.98268    20721    220969.65   -156.34997   -152.87827   -23.709268   -292.46238    421.35402    23.585221     22.23543    7.3605913    428.71461   -22238.214 
  492100   -93407.559   -80661.391    309.56888    20721    220933.97    157.80688    92.935019     253.3515    127.13411    421.08549    23.590836    22.240723    7.4948574    428.58034   -22228.031 
  492200   -93364.855   -80647.611    308.86642    20721    221172.36    62.727861   -192.48891    184.23658    196.43592     421.6072    23.588951    22.238946    7.2339982     428.8412    -22228.65 
  492300   -93486.402   -80670.791    311.25548    20721    221109.11    82.942395    33.227126    153.74631    61.853745    421.30803    23.593951    22.243659    7.3835859    428.69161   -22212.813 
  492400   -93426.697   -80664.782    309.95135    20721    220884.51   -82.669276    63.515338   -202.60248   -108.92069    421.30164    23.582143    22.232527    7.3867795    428.68842    -22219.72 
  492500   -93400.671   -80661.506    309.39881    20721    221178.28    82.322146    249.85592     138.0991   -140.98858    421.69161    23.586906    22.237018    7.1917964     428.8834    -22221.58 
  492600   -93365.447   -80682.964    308.02216    20721    221085.14   -16.065283    18.836784    239.81306   -306.84569     421.3009    23.592871    22.242642    7.3871476    428.68805    -22201.36 
  492700   -93535.011   -80631.563     313.3888    20721       221409    19.237645   -77.897193   -103.33284    238.94297    421.37171    23.608161    22.257056    7.3517431    428.72346   -22245.122 
  492800   -93398.578   -80621.571    310.31789    20721    221007.82    45.596209    154.27903    177.35255   -194.84295    420.84867    23.601416    22.250697    7.6132639    428.46194   -22274.061 
  492900   -93416.837   -80659.046    309.85117    20721    220922.23    9.7387469    21.961812    346.60332   -339.34889    421.02684    23.591852    22.241681    7.5241779    428.55102   -22240.761 
  493000   -93414.123   -80647.241      310.072    20721    220787.64    60.666569    59.471307    83.077388    39.451014    420.94091    23.587071    22.237174    7.5671428    428.50806   -22259.622 
  493100   -93520.413   -80678.873     311.8852    20721    220890.11   -34.170023    13.220116    42.681097   -158.41128    421.12735    23.587322     22.23741    7.4739226    428.60128   -22221.099 
  493200   -93390.757   -80706.521    308.06473    20721    220590.53    3.1035956    22.178934    44.788686   -57.656834    420.84177    23.579318    22.229864    7.6167154    428.45848   -22210.085 
  493300   -93355.117   -80694.421    307.49302    20721    220689.11    39.467179   -35.402259    99.608176     54.19562    420.82014    23.585192    22.235402    7.6275314    428.44767   -22221.132 
  493400   -93394.236   -80714.269    307.96107    20721    220570.18   -47.315018    2.7424317   -51.656233   -93.031254    420.82122    23.578805    22.229381    7.6269886    428.44821   -22203.971 
  493500   -93405.759   -80695.299    308.70166    20721    220745.01   -44.114979   -73.298146    95.520388   -154.56718    421.00087    23.583115    22.233444    7.5371647    428.53804   -22217.251 
  493600   -93420.397   -80746.002    307.82573    20721    220444.37    19.773951    16.506541    29.750179    13.065132     420.8493    23.571293    22.222299    7.6129481    428.46225   -22181.665 
  493700    -93448.09    -80747.61    308.45928    20721    220075.51   -52.220106   -55.101165   -158.09502    56.535867    421.02393     23.54668    22.199094    7.5256362    428.54956   -22191.244 
  493800   -93529.011   -80751.838    310.32193    20721    220406.74    43.933891    26.593068   -11.064988    116.27359    421.39313    23.554068    22.206059    7.3410341    428.73417   -22180.954 
  493900   -93500.571   -80734.379    310.05524    20721    220320.37   -91.197358   -74.058913    341.05447   -540.58762    421.08239     23.55814    22.209898    7.4964059    428.57879   -22197.237 
  494000   -93504.565   -80751.711    309.73129    20721    220204.39   -104.20114    77.281433   -502.61078    112.72593    420.96951    23.555096    22.207029    7.5528433    428.52236   -22186.533 
  494100   -93412.836   -80723.648    308.18501    20721    220212.39   -62.018162   -190.63807   -126.11538    130.69897     420.8127    23.559913    22.211569    7.6312497    428.44395   -22216.621 
  494200   -93509.884    -80709.12    310.89489    20721    220126.73   -57.708385    3.1149013   -244.03759    67.797537    420.54826    23.562734    22.214229    7.7634698    428.31173   -22236.362 
  494300   -93514.179   -80732.866    310.42248    20721    219902.12   -52.198291    38.288753   -459.06794    264.18432     420.2962    23.557771     22.20955    7.8895016     428.1857   -22224.303 
  494400   -93423.757   -80685.582    309.37475    20721    220215.23     -28.0651   -138.84233    180.15689   -125.50985    420.17868    23.577833    22.228464    7.9482622    428.12694   -22261.687 
  494500   -93378.736   -80650.536    309.13252    20721    220234.24    17.327129    65.479863    194.90519   -208.40367    420.28022    23.576002    22.226738    7.8974882    428.17771   -22298.498 
  494600   -93531.345   -80681.298    312.09185    20721    220457.18    91.569514    293.76424   -50.451952    31.396255    420.52485     23.58107    22.231516    7.7751752    428.30002   -22265.816 
  494700   -93438.829   -80669.445    310.13274    20721    220495.41   -35.051287   -43.016156    61.870819   -124.00852    420.58015    23.581564    22.231982    7.7475234    428.32768   -22273.734 
  494800   -93539.279   -80641.479    313.25164    20721    220630.99   -2.2913275   -23.559566   -175.75112     192.4367    421.39406    23.566021    22.217328    7.3405685    428.73463   -22300.084 
  494900   -93378.496   -80702.967    307.85328    20721    220791.89    113.96784   -107.95273    365.13602    84.720222    421.28365    23.577702     22.22834    7.3957766    428.67942   -22241.777 
  495000   -93389.473   -80707.692    308.00513    20721    220618.86    62.510826     459.2695   -396.70912    124.97209    421.16209    23.571863    22.222836    7.4565574    428.61864   -22242.726 
  495100   -93361.433   -80700.518    307.49834    20721    220385.56    71.334027    80.463868    50.325496    83.212716    420.70873    23.572086    22.223047    7.6832359    428.39196   -22263.188 
  495200   -93501.259   -80742.335    309.87872    20721    220346.29    86.300194    158.04607   -1.6034287    102.45794    420.38784     23.57898    22.229546    7.8436818    428.23152    -22224.29 
  495300   -93365.559   -80683.617    308.00903    20721       220276    63.265366    132.20249   -334.16969    391.76329    420.29367     23.57786     22.22849    7.8907645    428.18444   -22284.684 
  495400   -93392.439   -80683.003    308.67677    20721    220593.91    116.41199    238.44099    26.150467      84.6445    420.48901    23.589387    22.239357    7.7930944    428.28211    -22278.06 
  495500   -93412.625   -80674.636    309.37027    20721    220592.38    51.550464    85.792155   -79.779763      148.639      420.724    23.582716    22.233068    7.6755983     428.3996   -22285.525 
  495600   -93476.402   -80654.745    311.40233    20721    220768.54    9.2077335    297.96217   -304.28782    33.948857    420.47758    23.599043     22.24846    7.7988111    428.27639   -22297.569 
  495700   -93402.941   -80701.586    308.48051    20721    220414.03    141.35538    44.368435    209.62726    170.07043    420.28517    23.585484    22.235678     7.895017    428.18018   -22269.555 
  495800   -93428.121   -80656.747    310.18108    20721    220668.04   -103.44999   -74.397589   -173.97144   -61.980929    420.68795    23.587771    22.237833    7.6936256    428.38157   -22297.829 
  495900   -93491.691   -80631.823    312.33037    20721    220368.15   -105.11114   -450.26335    130.21699    4.7129376    420.51735    23.576518    22.227224    7.7789257    428.29627   -22338.967 
  496000   -93366.637    -80666.79    308.44387    20721    220498.92   -24.611211    238.12668   -197.62512   -114.33519    420.47642    23.584661    22.234901    7.7993919    428.27581   -22302.231 
  496100   -93383.431   -80642.934    309.43118    20721    220630.14    25.423729   -54.034179    32.458357    97.847009    420.48862    23.591335    22.241193    7.7932918    428.28191   -22326.022 
  496200    -93389.97   -80668.531     308.9683    20721    220475.27    56.227254     221.4497    80.636419   -133.40435    420.22752    23.590378    22.240292    7.9238377    428.15136   -22308.953 
  496300   -93450.495   -80634.012    311.27664    20721    220605.14   -46.105179    255.33091    110.16622   -503.81266    420.62464    23.586184    22.236337     7.725278    428.34992   -22335.938 
  496400   -93383.182   -80632.437    309.68005    20721    220688.96   -50.405309   -308.41709    154.89755     2.303605    420.73612    23.587538    22.237614    7.6695418    428.40566   -22334.947 
  496500    -93419.13   -80639.013    310.39342    20721    220874.36     50.35138   -91.144489    -220.8712    463.06983    420.67541    23.599147    22.248558    7.6998932    428.37531   -22327.687 
  496600   -93399.276   -80678.903    308.94242    20721    220446.41   -30.918883    2.4740763    142.61487   -237.84559    420.20393    23.589497     22.23946     7.935633    428.13957   -22303.222 
  496700   -93259.431   -80679.576    305.52964    20721    220498.66    50.142237    104.92083    81.858128   -36.352249    420.52546    23.583271    22.233591    7.7748698    428.30033   -22308.349 
  496800   -93490.663   -80635.195     312.2235    20721    220352.25   -44.926887    7.4274191    78.046816    -220.2549    420.26509    23.582742    22.233092    7.9050573    428.17014   -22356.694 
  496900   -93429.759   -80609.366    311.37163    20721    220802.79    26.162245   -170.66797    258.09974   -8.9450379    420.31223    23.605515    22.254562    7.8814871    428.19371   -22369.942 
  497000   -93455.153    -80629.36    311.50275    20721    220548.62   -65.669362   -117.80215   -56.403013   -22.802927    420.34956    23.590877    22.240762    7.8628201    428.21238   -22357.494 
  497100   -93383.591   -80644.798    309.38979    20721    220732.26   -9.1023338   -97.140222    74.811356   -4.9781359    420.38604    23.599672    22.249054     7.844579    428.23062   -22338.096 
  497200   -93488.059   -80673.595    311.22763    20721    220455.22   -35.009572    135.40116   -69.773704   -170.65617    420.17879    23.590674     22.24057    7.9482051    428.12699   -22322.124 
  497300   -93525.136   -80711.672    311.20334    20721    220499.74   -56.885773   -254.63139    5.9962006     77.97787    420.39265    23.587054    22.237157    7.8412748    428.23393   -22279.666 
  497400     -93491.3   -80707.978    310.47128    20721    220789.64   -69.814083   -218.03203   -259.59306    268.18284    420.26054    23.606264    22.255268    7.9073291    428.16787   -22277.774 
  497500   -93435.924   -80776.426    307.46392    20721    220685.22     83.14121    238.68809    271.15475   -260.41921    420.13008    23.604345    22.253459    7.9725594    428.10264   -22219.094 
  497600   -93443.897   -80732.772     308.7178    20721     220567.1     3.485597    257.71318     227.6738   -474.93019    420.00827    23.601449    22.250728    8.0334652    428.04173   -22265.063 
  497700   -93378.426   -80712.378      307.623    20721    220604.14    9.1128193    171.45899    4.3549275   -148.47546    419.99029    23.603935    22.253073    8.0424554    428.03274   -22287.483 
  497800   -93540.089   -80734.708      311.007    20721    220707.22   -40.026179   -93.262932   -70.941532    44.125927    420.18797    23.603895    22.253035    7.9436165    428.13158   -22261.302 
  497900   -93510.152   -80717.695    310.69313    20721    220575.17   -17.878033    56.047961    11.503902   -121.18596    420.13414    23.598345    22.247802    7.9705306    428.10467   -22287.258 
  498000   -93471.752   -80711.495    309.91109    20721    220505.47     16.92371    106.68918   -130.64311    74.725053    420.66966    23.579593    22.230123    7.7027699    428.37243   -22298.695 
  498100   -93372.873   -80663.124    308.68438    20721    220401.32   -89.127835      145.103   -134.16588   -278.32063    420.75021    23.571767    22.222745    7.6624945    428.41271   -22348.037 
  498200    -93419.51   -80664.649    309.78002    20721     220454.8    16.945703   -225.26389    85.639536    190.46147    421.02124    23.567038    22.218287    7.5269824    428.54822   -22351.703 
  498300   -93517.522   -80620.858    313.22403    20721    220675.41    13.448832   -72.727368   -82.106302    195.18016    421.28965    23.571314    22.222318    7.3927761    428.68242   -22390.378 
  498400   -93390.986   -80628.148    309.97376    20721    220296.98    45.780105    332.50381    75.757325   -270.92082    421.03337    23.558261    22.210012     7.520916    428.55428     -22397.4 
  498500   -93494.511   -80625.877    312.54325    20721    220344.96    68.210788   -83.315044    267.75571    20.191698     420.8838    23.565012    22.216377     7.595701     428.4795    -22403.67 
  498600   -93352.499   -80607.615    309.53772    20721    220544.23   -143.80296   -39.832402   -194.55713   -197.01936    420.98438    23.572849    22.223765    7.5454081    428.52979   -22404.808 
  498700   -93275.183   -80631.456    307.08089    20721    220543.04    3.5763458    101.53595    142.81853   -233.62544    421.06146    23.570628    22.221671    7.5068722    428.56833    -22389.97 
  498800    -93441.77   -80664.631    310.32111    20721    220619.65    80.717962    172.87819   -343.15644    412.43214    421.31935    23.567505    22.218727    7.3779257    428.69727   -22359.715 
  498900   -93536.425   -80693.495      311.919    20721    220556.25   -97.520925   -310.64323   -37.565058    55.645512    421.26494     23.56564    22.216969    7.4051292    428.67007   -22326.492 
  499000   -93496.558   -80651.749     311.9646    20721    220497.08   -31.414372   -258.94662    255.88208   -91.178574     421.3944    23.558859    22.210576    7.3404024     428.7348   -22375.536 
  499100   -93357.556   -80678.365    307.94221    20721    220490.71    73.333502     124.1839    6.5563739    89.260231    421.59278    23.552976     22.20503    7.2412117    428.83399   -22354.993 
  499200   -93377.059   -80669.898    308.62153    20721    220789.47    32.109751    155.37827   -144.31691    85.267897    421.76741    23.564047    22.215468    7.1538935    428.92131   -22350.632 
  499300   -93441.131    -80705.75    309.30692    20721    220679.17    137.95236    205.92474    358.31022    -150.3779     421.7893    23.557549    22.209341    7.1429525    428.93225   -22326.086 
  499400   -93489.092   -80699.376    310.62656    20721    220912.53    33.888774   -120.49615    205.20481    16.957655    421.76108     23.57079    22.221825    7.1570625    428.91814   -22322.479 
  499500   -93563.065   -80700.899    312.38615    20721    220843.32   -90.638756   -93.647529   -292.97701    114.70827    421.21557    23.582353    22.232726    7.4298126    428.64539   -22320.332 
  499600   -93413.078   -80703.262    308.68601    20721    220476.04    19.915461   -96.465018    36.399782    119.81162    421.17221    23.563948    22.215374    7.4514943    428.62371   -22335.513 
  499700   -93437.225   -80696.171     309.4447    20721    220620.84    108.16803    63.135578     165.1407    96.227802    421.30121    23.568076    22.219266    7.3869956     428.6882   -22344.528 
  499800   -93619.893   -80687.014    314.10358    20721    220864.08   -157.90129   -247.32398    -125.8464   -100.53347    421.68598    23.570304    22.221366    7.1946119    428.88059   -22336.143 
  499900    -93441.27    -80675.13    310.05397    20721    220759.24    174.81193    178.48142    431.08231   -85.127937     421.7728    23.562283    22.213805     7.151201      428.924   -22367.647 
  500000   -93450.037   -80655.608    310.74102    20721    220592.97   -64.022513   -161.44862   -294.91072     264.2918    421.52269    23.560395    22.212025    7.2762563    428.79894   -22385.218 
Loop time of 52697 on 32 procs for 500000 steps with 20721 atoms

Performance: 1.640 ns/day, 14.638 hours/ns, 9.488 timesteps/s
97.3% CPU use with 32 MPI tasks x no OpenMP threads

MPI task timing breakdown:
Section |  min time  |  avg time  |  max time  |%varavg| %total
---------------------------------------------------------------
Pair    | 6441.6     | 9266.1     | 13132      |2530.2 | 17.58
Bond    | 0.37465    | 0.47067    | 0.6715     |  10.8 |  0.00
Kspace  | 8555.7     | 12438      | 15280      |2197.9 | 23.60
Neigh   | 8376.8     | 10307      | 12106      |1327.2 | 19.56
Comm    | 464.68     | 3835       | 7694       |4422.1 |  7.28
Output  | 4.5246     | 45.091     | 73.809     | 376.7 |  0.09
Modify  | 13190      | 16763      | 21839      |2437.1 | 31.81
Other   |            | 41.58      |            |       |  0.08

Nlocal:    647.531 ave 700 max 596 min
Histogram: 2 2 5 5 5 1 2 4 4 2
Nghost:    7341.28 ave 7820 max 6828 min
Histogram: 3 2 6 4 3 1 1 1 6 5
Neighs:    238691 ave 272911 max 212171 min
Histogram: 2 7 10 0 0 1 0 6 3 3
FullNghs:  477383 ave 545361 max 421879 min
Histogram: 2 6 10 1 0 1 0 4 6 2

Total # of neighbors = 15276246
Ave neighs/atom = 737.235
Ave special neighs/atom = 2
Neighbor list builds = 500000
Dangerous builds not checked
write_data production.R1
PPPM initialization ...
  extracting TIP4P info from pair style
WARNING: Using 12-bit tables for long-range coulomb (../kspace.cpp:316)
  G vector (1/distance) = 0.345971
  grid = 400 48 48
  stencil order = 5
  estimated absolute RMS force accuracy = 0.000400437
  estimated relative force accuracy = 1.2059e-06
  using double precision FFTs
  3d grid and FFT values/proc = 67260 38400
write_restart restartproduction.R1
PPPM initialization ...
  extracting TIP4P info from pair style
WARNING: Using 12-bit tables for long-range coulomb (../kspace.cpp:316)
  G vector (1/distance) = 0.345971
  grid = 400 48 48
  stencil order = 5
  estimated absolute RMS force accuracy = 0.000400437
  estimated relative force accuracy = 1.2059e-06
  using double precision FFTs
  3d grid and FFT values/proc = 67260 38400
Total wall time: 14:38:17
