LAMMPS (30 Jul 2016)
# Sets up LAMMPS simulation for transient melting of ice: TIP4P/Ice
# Ensure cold thermostats do not move
# Thinbox: 16x1x1
# Defects
# Order param l=2

#### setting MD parameters ####
units real
boundary p p p
atom_style full

# read ice box in restart file
### read the equilibrated NPT restart file

read_restart restart.state
  orthogonal box = (0.438423 0.0236579 0.022304) to (435.637 23.5075 22.1622)
  32 by 1 by 1 MPI processor grid
  20736 atoms
  13824 bonds
  6912 angles
  2 = max # of 1-2 neighbors
  1 = max # of 1-3 neighbors
  1 = max # of 1-4 neighbors
  2 = max # of special neighbors


#### force field definition ####
pair_style      lj/cut/tip4p/long 2 1 1 1 0.1577 10.0
pair_modify	tail yes

kspace_style	pppm/tip4p 1.0e-6

bond_style	harmonic
angle_style	harmonic
dihedral_style	none
improper_style	none

bond_coeff	1 450.0 0.9572
angle_coeff	1 55.0 104.52


# reset pair coeff
pair_coeff	* * 0.0 0.0

#OO
pair_coeff	2 2 0.21085 3.1668
#OH
pair_coeff	* 1 0.0000 0.0000

neighbor        2.0 bin
neigh_modify    every 1 delay 1 check no

timestep	2.0
fix		constraints all shake 0.000001 20 0 b 1 a 1
  0 = # of size 2 clusters
  0 = # of size 3 clusters
  0 = # of size 4 clusters
  6912 = # of frozen angles

group water type 1 2
20736 atoms in group water

#*********** SIMULATION PARAMETER TO ADJUST ****************
#Box dimensions
variable lx equal lx
variable ly equal ly
variable lz equal lz

### Temperature of the hot and cold regions ####
variable thi equal 375
variable tlo equal 215
variable runpressure equal 0.986923


# Configuration equilibrated in density and temperature

# Define dx here

variable lx equal lx
variable ly equal ly
variable lz equal lz

variable xlo equal xlo
variable xhi equal xhi

variable boxcentre equal ${xlo}+(${xhi}-${xlo})/2
variable boxcentre equal 0.438423215906454+(${xhi}-${xlo})/2
variable boxcentre equal 0.438423215906454+(435.636776784088-${xlo})/2
variable boxcentre equal 0.438423215906454+(435.636776784088-0.438423215906454)/2

variable dx equal 2.0

#### ADD IN DEFECTS AT THE CENTRE OF THE HOT THERMOSTAT #####
variable y1 equal ${ly}/2.0
variable y1 equal 23.4838841958533/2.0
variable z1 equal ${lz}/2.0
variable z1 equal 22.1398920982743/2.0

region kill1 sphere ${boxcentre} ${y1} ${z1} 3
region kill1 sphere 218.037599999997 ${y1} ${z1} 3
region kill1 sphere 218.037599999997 11.7419420979266 ${z1} 3
region kill1 sphere 218.037599999997 11.7419420979266 11.0699460491371 3
delete_atoms region kill1 compress no bond yes mol yes
Deleted 15 atoms, new total = 20721
Deleted 10 bonds, new total = 13814
Deleted 5 angles, new total = 6907
############


variable thip equal ${thi}*2.0/3.0
variable thip equal 375*2.0/3.0
variable tlop equal ${tlo}*2.0/3.0
variable tlop equal 215*2.0/3.0
variable hbl equal ${boxcentre}-${dx}
variable hbl equal 218.037599999997-${dx}
variable hbl equal 218.037599999997-2
variable hbh equal ${boxcentre}+${dx}
variable hbh equal 218.037599999997+${dx}
variable hbh equal 218.037599999997+2

#***************************************************
## EQUILIBRATION PERIOD - to reach the steady state ###
#run 0

#reset the timestep to start your production run
reset_timestep 0

# define a group to perform averages
#group s1 type 1
###*** SYSTEM THERMOSTATTING: HOT and COLD regions ***###

fix NVE all nve
fix PRESS all press/berendsen aniso ${runpressure} ${runpressure} 500000 couple yz
fix PRESS all press/berendsen aniso 0.986923 ${runpressure} 500000 couple yz
fix PRESS all press/berendsen aniso 0.986923 0.986923 500000 couple yz


### Apply THERMOSTATS ###

#set up the "hot region" in the middle of the box
region hot block ${hbl} ${hbh} 0 ${ly} 0 ${lz} units box
region hot block 216.037599999997 ${hbh} 0 ${ly} 0 ${lz} units box
region hot block 216.037599999997 220.037599999997 0 ${ly} 0 ${lz} units box
region hot block 216.037599999997 220.037599999997 0 23.4838841958533 0 ${lz} units box
region hot block 216.037599999997 220.037599999997 0 23.4838841958533 0 22.1398920982743 units box


#set up the "cold region" at the left end of the box
#region cold block ${cbl} ${cbh} 0 ${ly} 0 ${lz} units box

#set up the "cold region" at the right end of the box
#region cold2 block ${h2bl} ${xhi} 0 ${ly} 0 ${lz} units box


#Cold regions  unification
#region cold union 2 cold1 cold2 units box

#Create group of cold molecules
####group cool_ice region cold
####group cool_ice include molecule

####compute cold_temp cool_ice temp
####fix cold_rescale water temp/rescale 1 ${tlo} ${tlo} 0.0001 1.0
####fix_modify cold_rescale temp cold_temp

#this calculates the temperature using only the atoms in the "hot region"
#compute hot_temp all temp/region hot

# calculate the temperature using only WATER in the "hot region"
compute hot_temp water temp/region hot

#this calculates the temperature using only WATER in the "cold region"
#compute cold_temp water temp/region cold


#set up a basic velocity rescale for the hot region WATER with thip
fix hot_rescale water temp/rescale 1 ${thip} ${thip} 1.0 1.0
fix hot_rescale water temp/rescale 1 250 ${thip} 1.0 1.0
fix hot_rescale water temp/rescale 1 250 250 1.0 1.0
#change the thermostat to only act on the "hot region"
#this is done by passing it the "hot temp" compute that we defined above
fix_modify hot_rescale temp hot_temp

#set up a basic velocity rescale for the cold region
#fix cold_rescale water temp/rescale 1 ${tlop} ${tlop} 1.0 1.0
#change the thermostat to only act on the "cold region"
#this is done by passing it the "cold temp" compute that we defined above
#fix_modify cold_rescale temp cold_temp

### Ensure MOMENTUM CONSERVATION ###

#ensure that linear momentum is conserved despite the "thermostatting" by velocity rescaling
fix cons_mom all momentum 1 linear 1 1 1


thermo 100
thermo_style custom step pe etotal temp atoms vol press pxx pyy pzz lx ly lz xlo xhi  f_hot_rescale

group ox type 2
6907 atoms in group ox
group hy type 1
13814 atoms in group hy
compute KE all ke/atom
variable TEMP atom c_KE*4186.8/(1.3806488*6.02214129)

compute cc1 all chunk/atom bin/1d x center 2 units box
#fix TPROFILE all ave/chunk 1 500 500 cc1 v_TEMP density/number file temp.dat
fix TPROFILEox ox ave/chunk 1 500 500 cc1 v_TEMP density/number file temp-ox.dat
fix TPROFILEhy hy ave/chunk 1 500 500 cc1 v_TEMP density/number file temp-hy.dat

compute orderparam ox orientorder/atom degrees 1 2 nnn 4 cutoff 3.5
compute cc2 ox chunk/atom bin/1d x center 2 units box
#fix ORDERPARAM all ave/chunk 1 500 500 cc2 c_orderparam[1] file order-param.dat
fix ORDERPARAM all ave/chunk 1 500 500 cc2 c_orderparam[1] file order-param.dat

restart 50000 config.restart

run 500000
PPPM initialization ...
  extracting TIP4P info from pair style
WARNING: Using 12-bit tables for long-range coulomb (../kspace.cpp:316)
  G vector (1/distance) = 0.345602
  grid = 405 48 48
  stencil order = 5
  estimated absolute RMS force accuracy = 0.000405906
  estimated relative force accuracy = 1.22238e-06
  using double precision FFTs
  3d grid and FFT values/proc = 67260 38880
Neighbor list info ...
  2 neighbor list requests
  update every 1 steps, delay 1 steps, check no
  max neighbors/atom: 2000, page size: 100000
  master list distance cutoff = 12.3154
  ghost atom cutoff = 12.3154
  binsize = 6.1577 -> bins = 71 4 4
Memory usage per processor = 12.7749 Mbytes
Step PotEng TotEng Temp Atoms Volume Press Pxx Pyy Pzz Lx Ly Lz Xlo Xhi hot_resc 
       0   -103793.91    -95027.82    212.90388    20721    226272.97    99.142621   -10.530074    271.81842    36.139518    435.19835    23.483884    22.139892   0.43842322    435.63678            0 
     100   -103660.28   -94732.135    216.83986    20721    226344.36   -19.709746   -3.6978059   -19.978236   -35.453195    435.22542    23.486858    22.142696   0.42489122    435.65031   -289.91861 
     200   -103619.67   -94706.751    216.47006    20721    226389.49    14.160224    101.35499   -286.77747    227.90316    435.40066    23.484472    22.140447   0.33727019    435.73793   -316.18885 
     300   -103584.03   -94642.948    217.15407    20721    226398.75     36.69917    31.093831    114.69417    -35.69049    435.04698    23.494497    22.149898   0.51411012    435.56109   -381.12961 
     400   -103581.97   -94583.215    218.55466    20721    226484.36   -46.304972    37.999375   -261.43449    84.520197    435.12399    23.496859    22.152124    0.4756044     435.5996   -436.03984 
     500      -103549   -94552.045    218.51099    20721    226382.14    21.313692   -173.83979     182.5408    55.240062    435.24198    23.488371    22.144122   0.41661214    435.65859    -475.0717 
     600   -103533.17   -94526.513    218.74656    20721    226456.38    4.5783807    176.61005    20.700822   -183.57573     435.3141    23.490277    22.145919   0.38055181    435.69465   -498.90239 
     700   -103504.63   -94469.758    219.43179    20721    226570.07    95.790397   -21.044752    306.59935    1.8165919    435.25543    23.497756     22.15297   0.40988588    435.66531   -557.00975 
     800   -103522.19   -94449.868    220.34145    20721    226417.43    26.532496     117.4782   -299.52922    261.64851    435.17346    23.492051    22.147592   0.45087032    435.62433   -579.19003 
     900   -103456.91   -94408.124    219.76989    20721     226532.7    77.893595    258.34499   -281.65803    256.99382     435.2557    23.495811    22.151136   0.40974828    435.66545   -622.48691 
    1000   -103458.19   -94339.339    221.47137    20721    226503.15   -8.0936067    19.913501    39.742857   -83.937178     435.5594    23.486086    22.141968   0.25789964     435.8173   -686.86584 
    1100   -103428.82   -94309.367    221.48601    20721    226522.97   -6.2051648   -68.916252    77.887771   -27.587013    435.24722    23.495535    22.150876   0.41398997    435.66121   -715.53581 
    1200   -103423.07   -94267.017    222.37511    20721    226643.55    2.0535733    44.921752   -123.88173    85.120695    435.35468    23.498887    22.154036   0.36026025    435.71494   -757.03715 
    1300   -103354.51   -94231.497    221.57255    20721    226657.55    54.751758    194.05531   -74.251943    44.451908    435.55649    23.494168    22.149587   0.25935635    435.81584   -793.96286 
    1400   -103358.24   -94202.643    222.36393    20721    226463.65    7.3484952    74.675624    -11.73433   -40.895809    435.34329    23.489866    22.145532    0.3659556    435.70924   -827.49269 
    1500   -103410.09   -94170.916    224.39378    20721     226543.4   -18.524143    -130.5667   -213.60234    288.59661     435.3772    23.493087    22.148568   0.34899861     435.7262   -855.86425 
    1600   -103289.95   -94149.744    221.99017    20721    226352.05   -3.8225637    40.870667      93.3868   -145.72516    435.26413    23.486213    22.142087    0.4055361    435.66966    -883.1474 
    1700   -103355.59   -94152.018    223.52905    20721    226636.17    -13.71487   -100.15387    13.475626    45.533631    435.34921    23.498652    22.153814   0.36299442    435.71221   -873.15623 
    1800   -103408.44   -94086.386    226.40667    20721    226514.13   -93.607198   -173.37479    72.328783   -179.77558     435.5244    23.487599    22.143394   0.27539933     435.7998   -940.67709 
    1900   -103369.69    -94087.67    225.43435    20721    226659.08   -51.409248    162.54369   -316.33982  -0.43161614    435.57396    23.493776    22.149218   0.25062193    435.82458   -939.35792 
    2000   -103293.21   -94074.205    223.90383    20721    226541.38    16.914185   -45.313735    296.02748   -199.97119    435.45149    23.490978     22.14658   0.31185648    435.76334   -957.75765 
    2100   -103169.93   -94039.674    221.74854    20721     226661.7    40.729476    8.5290757    364.41925    -250.7599    435.62071    23.492651    22.148157   0.22724295    435.84796   -990.47778 
    2200   -103319.53   -94009.793    226.10752    20721    226715.89   -77.223227   -192.24175   -95.672038    56.244103    435.59024    23.496281    22.151579   0.24247919    435.83272   -1016.4845 
    2300    -103227.6   -93987.485     224.4167    20721    226674.78    53.099607    96.295524    161.45773   -98.454437    435.48916    23.496877    22.152141    0.2930186    435.78218   -1046.7975 
    2400   -103210.92   -94005.072    223.58436    20721    226707.21    17.799381    165.13303   0.38692382   -112.12181    435.31772    23.503184    22.158088   0.37873922    435.69646   -1026.6923 
    2500   -103251.34   -93977.135    225.24453    20721    226780.22   -80.683652   -162.43228   -19.895626    -59.72305    435.62971    23.498549    22.153718   0.22274398    435.85246   -1048.3473 
    2600   -103266.08   -93986.818    225.36731    20721    226508.75    10.280706   -14.103436    101.57876   -56.633202    435.25218    23.494664    22.150055   0.41150989    435.66369   -1051.2578 
    2700   -103310.72    -93961.12    227.07583    20721       226560   -105.57477   -264.23857   -195.36783    142.88207    435.13908    23.500375    22.155439    0.4680614    435.60714   -1073.4325 
    2800   -103232.24   -93987.174     224.5368    20721     226611.1    98.131228     104.1584    185.77792    4.4573585     435.4555    23.494484    22.149886    0.3098484    435.76535   -1055.3519 
    2900   -103161.04   -93933.633    224.10792    20721    226634.99   -36.662084   -101.96396    45.250558   -53.272845     435.3558    23.498413    22.153589    0.3597025     435.7155   -1102.3026 
    3000    -103255.3   -93887.626    227.51463    20721    226593.82   -46.432837     135.4449   -434.54247    159.79906    435.33162    23.496931    22.152192   0.37178761    435.70341   -1150.5748 
    3100   -103170.13   -93912.727    224.83645    20721    226531.91    26.235701    20.943198    45.309513    12.454394    435.16537    23.498208    22.153396   0.45491305    435.62029   -1131.6046 
    3200   -103128.72   -93823.695    225.99304    20721    226584.86   -14.195778     94.54315    172.59682   -309.72731    435.42069    23.494063    22.149488    0.3272539    435.74795   -1216.3211 
    3300   -103085.92   -93807.964    225.33565    20721    226749.01    37.620149    76.056573    266.46618   -229.66231    435.42412    23.502479    22.157423   0.32553865    435.74966     -1230.37 
    3400   -103049.46   -93790.141    224.88308    20721     226731.8    8.2385847   -1.3403057    58.636649   -32.580589     435.5717    23.497605    22.152828   0.25174798    435.82345   -1249.3403 
    3500    -103097.8   -93769.426    226.56031    20721       226639    20.053812    9.8129402    20.402964    29.945532    435.45455    23.495956    22.151273   0.31032334    435.76488   -1277.5908 
    3600   -103151.11   -93761.948    228.03668    20721     226886.9    6.3122028    118.38093    97.924377    -197.3687    435.61854    23.504377    22.159212    0.2283317    435.84687   -1277.7137 
    3700   -103142.59   -93759.418    227.89101    20721    226481.28    33.014541   0.29133835   -153.70562    252.45791    435.25374    23.493196    22.148671   0.41072906    435.66447   -1290.8877 
    3800   -103003.57    -93703.78    225.86593    20721    226688.96    63.045933   -40.899076    48.289208    181.74767    435.51966    23.496789    22.152058   0.27776849    435.79743   -1343.0161 
    3900   -103058.85   -93718.385    226.85392    20721    226729.95    -2.200567   -71.583002    180.53995   -115.55865    435.34302     23.50368    22.158555   0.36609082    435.70911    -1327.008 
    4000   -103084.95   -93741.676      226.922    20721    226563.48   -56.868574   -105.95957   -146.87554    82.229384    435.35773    23.494653    22.150045   0.35873425    435.71647   -1306.2863 
    4100   -103064.31   -93712.049    227.14031    20721    226664.52    70.806515      98.5492    167.01889   -53.148547    435.28337    23.501898    22.156875   0.39591277    435.67929   -1340.0557 
    4200   -103019.92   -93699.414    226.36914    20721       226720    -19.64881    -36.33459   -47.061488    24.449646    435.39528    23.501754    22.156739   0.33996011    435.73524   -1347.4155 
    4300      -103090   -93711.896    227.76807    20721    226626.22   -2.7503076   -2.8449669    146.93962   -152.34557    435.44917    23.495439    22.150786   0.31301696    435.76218   -1339.0645 
    4400   -103041.42   -93668.189    227.64972    20721    226781.27   -2.7072632    5.1726875     94.27186   -107.56634    435.44242    23.503657    22.158533   0.31638756    435.75881   -1379.4777 
    4500   -102960.08   -93640.315      226.351    20721    226883.99    43.603025   -37.955538    19.456047    149.30857    435.54074    23.506326    22.161049   0.26723085    435.80797   -1406.2867 
    4600   -102990.56   -93629.823    227.34618    20721    226683.59   -33.496575    5.7266765   -138.25611    32.039705    435.47955    23.497593    22.152816    0.2978261    435.77737   -1419.6823 
    4700   -103011.78   -93590.405    228.81901    20721    226729.17   -21.035375    -118.6626   -125.81983     181.3763    435.73898    23.492958    22.148447    0.1681081    435.90709   -1459.8067 
    4800   -103071.56   -93580.922    230.50121    20721    226813.15   -95.873374   -172.50785   -292.78739    177.67511    435.66718    23.499245    22.154374   0.20400818    435.87119   -1465.2679 
    4900   -102916.44   -93563.882    227.14754    20721    226794.67    58.810372   -80.810717    87.398881    169.84295    435.60767    23.499893    22.154984   0.23376639    435.84143    -1487.265 
    5000   -103050.35   -93578.912    230.03487    20721    226697.13   -20.708688    41.441594    183.82325   -287.39091    435.61102    23.494748    22.150135   0.23209077    435.84311   -1474.6651 
    5100   -102955.11   -93546.414    228.51109    20721    226877.29   -5.7174637   -57.854048   -178.60426    219.30592    435.62476    23.503712    22.158585   0.22522187    435.84998   -1502.4819 
    5200   -103070.42   -93519.012    231.97698    20721    226821.63    20.935316    76.742466   -199.39827    185.46175    435.52538     23.50351    22.158394   0.27490998    435.80029   -1534.0266 
    5300   -103018.99   -93509.787    230.95204    20721    226690.31   -51.874526   -48.334784   -65.792276   -41.496518    435.52231    23.496787    22.152057   0.27644646    435.79875   -1544.3025 
    5400   -102991.98   -93497.877    230.58525    20721    226756.98    24.583521   -41.021826     73.52439    41.247999    435.55306    23.499413    22.154532   0.26106763    435.81413   -1556.7985 
    5500   -102882.49   -93456.809    228.92344    20721    226816.29    66.869328    15.125281   -78.291128    263.77383    435.67727    23.499135    22.154271   0.19896328    435.87624   -1600.9628 
    5600   -102939.31   -93435.406    230.82333    20721    226671.28     41.29199    26.561596     263.2305   -165.91612    435.54904    23.495081    22.150448   0.26308132    435.81212   -1626.5712 
    5700   -102918.65   -93441.498    230.17359    20721    226801.22    15.877254   -36.361587    212.15702   -128.16367    435.23175    23.510379    22.164871   0.42172722    435.65347   -1616.9093 
    5800   -102909.69   -93427.603    230.29336    20721    226719.76   -96.000882    -41.93148   -88.841736   -157.22943    435.51333    23.498556    22.153724   0.28093398    435.79427   -1627.3654 
    5900   -102899.01     -93439.9    229.73535    20721    226536.03    26.177046    72.060373   -91.426811    97.897576    435.42623    23.491382    22.146961   0.32448488    435.75072   -1626.9328 
    6000   -102897.09   -93401.107     230.6309    20721    226566.34    11.583572   -74.931914    50.261902    59.420727    435.24715    23.497786    22.152998   0.41402501    435.66117   -1665.1592 
    6100   -102813.03   -93403.229    228.53783    20721    226638.15    11.242422    51.043923    287.46228   -304.77894    435.42036    23.496835    22.152101   0.32742024    435.74778    -1659.735 
    6200   -102973.07   -93435.884    231.63174    20721    226503.67   -52.396087    35.273389    8.6538243   -201.11547    435.28117    23.493618    22.149069   0.39701607    435.67818   -1629.6106 
    6300   -102962.74   -93421.809    231.72254    20721    226679.68   -81.690829   -156.58986    32.141111   -120.62374    435.22098    23.504369    22.159205   0.42711052    435.64809   -1640.0471 
    6400   -102909.32   -93375.144    231.55857    20721    226561.13   -44.977738    172.04391   -246.27259   -60.704543    435.38307    23.493847    22.149285   0.34606292    435.72914   -1692.1629 
    6500   -102871.07   -93337.882    231.53455    20721    226827.25    52.773479   -98.832007    125.93469    131.21775    435.56907    23.502622    22.157557    0.2530649    435.82214   -1728.9964 
    6600   -102849.91   -93272.775    232.60186    20721    226616.57    15.969531    123.11666    129.55409   -204.76215    435.33426    23.498039    22.153237   0.37047016    435.70473    -1798.616 
    6700   -102765.88   -93237.462    231.41864    20721    226717.53    60.863779    167.60498    152.43841   -137.45205    435.42349    23.500865    22.155901   0.32585572    435.74934   -1833.9167 
    6800   -102814.72   -93248.611    232.33423    20721    226694.33    -7.875057   -8.9008271   -134.57265    119.84831    435.36446    23.501255    22.156269   0.35537178    435.71983   -1821.7202 
    6900   -102772.05   -93251.339    231.23166    20721    226514.38     79.02751    18.643829    161.30867    57.130033    435.47644    23.488905    22.144625   0.29937777    435.77582   -1828.6222 
    7000   -102866.07   -93237.331    233.85513    20721    226772.88   -55.508135   -220.69695    352.01727   -297.84473    435.52946    23.500874    22.155909   0.27287001    435.80233   -1830.0808 
    7100    -102700.7   -93192.627    230.92465    20721    226601.49    6.9973941    225.99242    180.41513   -385.41536    435.06672    23.504481     22.15931   0.50423756    435.57096   -1883.7616 
    7200   -102712.53   -93183.493    231.43385    20721    226647.23    75.952144    200.66509    90.717611    -63.52627    435.57402     23.49316    22.148637   0.25059167    435.82461   -1895.5109 
    7300   -102686.63   -93175.988    230.98707    20721    226694.12     77.29356   -61.023758    222.38726    70.517174    435.58644    23.495255    22.150612     0.244379    435.83082   -1903.1768 
    7400   -102751.94   -93167.148    232.78792    20721    226757.14   -6.8837859    50.640529    123.38347   -194.67535    435.53984    23.499778    22.154876   0.26767842    435.80752   -1908.3391 
    7500   -102829.38   -93203.209     233.7928    20721    226828.48    7.6675057   -34.519873    172.96588   -115.44349    435.81923    23.495939    22.151257   0.12798671    435.94721   -1871.6898 
    7600   -102774.15   -93183.701    232.92536    20721    226888.74  -0.56634704   -26.452549   -136.77213    161.52564    435.74673    23.501015    22.156042   0.16423455    435.91097   -1890.1635 
    7700    -102707.6   -93162.188     231.8314    20721     226838.7    33.773831  -0.11286495   -31.684355    133.11871    435.77115    23.497765    22.152978   0.15202436    435.92318   -1914.4896 
    7800   -102889.92    -93189.91     235.5863    20721    226777.71   -71.118203   -127.42033   -153.01714    67.082858    435.57309    23.499947    22.155035   0.25105345    435.82415   -1885.7254 
    7900   -102788.77   -93166.216    233.70495    20721    226774.87   -66.961823    7.0645323   -285.83569    77.885688    435.66363    23.497358    22.152594   0.20578482    435.86942   -1910.8675 
    8000   -102670.37   -93131.274    231.67816    20721    226756.88    39.240503     72.35917    85.917907   -40.555568    435.50758    23.500635    22.155684    0.2838077    435.79139   -1951.4619 
    8100    -102651.5   -93100.514    231.96671    20721    226837.47    21.161768    38.873492    58.463107   -33.851295    435.52306    23.504393    22.159227   0.27606809    435.79913   -1978.5174 
    8200   -102688.96   -93089.366    233.14728    20721     226657.1   -15.460655    46.634114    157.33275   -250.34883    435.39046    23.498623    22.153788   0.34236896    435.73283   -1994.7485 
    8300   -102719.33   -93078.738    234.14316    20721    226972.48    -32.73605   -17.825486   -14.806839   -65.575826    435.59451    23.509458    22.164002   0.24034546    435.83485   -1997.2956 
    8400   -102639.98   -93079.491    232.19772    20721    226632.37   -81.692185   -80.541188   -266.26229    101.72692    435.32042    23.499232    22.154361    0.3773883    435.69781   -2004.5322 
    8500   -102677.77   -93061.385    233.55515    20721    226759.01   -22.090663    54.539444    119.35555   -240.16699    435.70553    23.495406    22.150755   0.18483644    435.89036   -2023.5372 
    8600   -102664.04   -93025.445    234.09468    20721    226793.91    66.857912     35.67762    30.888195    134.00792    435.45176     23.50406    22.158913   0.31172162    435.76348   -2063.1177 
    8700   -102613.98   -93059.249    232.05782    20721    226820.15   -33.849351   -29.633557   -144.98514    73.070638    435.48298    23.504577    22.159401   0.29610881    435.77909   -2023.3522 
    8800    -102633.7   -93043.944    232.90855    20721    226982.43    103.48839   -51.263114    340.44284    21.285454    435.62868    23.509052    22.163619   0.22326219    435.85194   -2043.3565 
    8900   -102692.09   -93053.232    234.10088    20721    226875.05   -28.128136    47.015619   -37.331356    -94.06867    435.68845    23.501877    22.156856    0.1933745    435.88183   -2032.6965 
    9000   -102679.86    -93039.57    234.13579    20721    226952.66    21.030106   -68.058309   -49.767531    180.91616    435.58447    23.508703     22.16329   0.24536575    435.82983   -2046.9821 
    9100   -102699.04   -93023.672    234.98769    20721    226882.21   -44.315268    96.881899     15.98104   -245.80874    435.61973    23.504102    22.158953   0.22773745    435.84746   -2063.8296 
    9200   -102626.22   -93019.761    233.31401    20721    226970.04    11.426605   -144.29217    251.00422   -72.432229    435.79799    23.503842    22.158708   0.13860578    435.93659   -2070.0669 
    9300   -102640.35   -93032.465    233.34869    20721    226706.79    47.793408     100.2279    -139.3578    182.51012     435.3867    23.501301    22.156312   0.34425154    435.73095   -2066.7378 
    9400   -102622.08   -93022.409    233.14919    20721    226857.96    21.705671    166.84529     48.98885   -150.71713    435.57412    23.504076    22.158929   0.25053933    435.82466   -2072.6039 
    9500   -102686.12   -92995.696     235.3535    20721    226886.24    47.781451    75.692855    168.64485   -100.99335    435.58166    23.505338    22.160118   0.24677215    435.82843   -2102.4822 
    9600   -102559.85   -92942.006    233.59055    20721    226847.89    17.631788    158.19894   -89.265709   -16.037867    435.58869    23.503162    22.158066   0.24325365    435.83195   -2154.3879 
    9700    -102619.2       -92942    235.03223    20721    226917.73    43.696539    62.192962   -220.98462    289.88127    435.80238    23.501016    22.156043   0.13640791    435.93879   -2156.0684 
    9800   -102512.43    -92904.27    233.35537    20721    226894.17    5.6927597   -71.627868    77.688787    11.017361    435.51163    23.507639    22.162287   0.28178625    435.79341    -2193.217 
    9900   -102551.12   -92922.936    233.84183    20721    226920.63    70.054593   -20.189989    113.37967    116.97409     435.5851    23.507027     22.16171   0.24505194    435.83015   -2177.4544 
   10000   -102646.62   -92924.851    236.11478    20721    226807.71   -74.904583   -1.9909996    -230.3991    7.6763464    435.62556    23.500086    22.155167   0.22482113    435.85038   -2172.7629 
   10100   -102639.08   -92892.201    236.72449    20721    226887.23    12.691259    76.778387    234.74432   -273.44893    435.64024    23.503809    22.158677   0.21748168    435.85772   -2209.8645 
   10200   -102580.49   -92856.376    236.17158    20721    227077.23   -29.457368    -94.77898    59.215883   -52.809009    435.66593    23.512955    22.167299   0.20463487    435.87057    -2238.103 
   10300   -102522.43   -92878.017    234.23591    20721    226968.01    4.8559926   -46.826869    66.481519   -5.0866722    435.55754    23.510224    22.164725   0.25883019    435.81637   -2221.0256 
   10400    -102516.1   -92860.493    234.50769    20721    226735.48   -44.996889    158.90256   -185.67653   -108.21669    435.41655    23.501982    22.156954    0.3293262    435.74587    -2243.686 
   10500   -102567.13   -92827.758     236.5421    20721    226823.54    108.47029    265.53503   -104.30895    164.18478    435.51191    23.503972     22.15883   0.28164694    435.79355   -2283.3259 
   10600   -102565.24   -92826.253    236.53276    20721    226570.41   -16.466144   -33.372527   -147.70775    131.68184    435.21107    23.498971    22.154115   0.43206544    435.64313    -2287.025 
   10700   -102529.42    -92824.71    235.70038    20721    226741.78     13.06025    60.680091   -1.7895902   -19.709749    435.29508    23.505588    22.160353   0.39005769    435.68514   -2286.1976 
   10800   -102505.74   -92804.829      235.608    20721     226723.1   -19.577185   -106.37927   -16.475364     64.12308    435.23837    23.506151    22.160884   0.41841544    435.65678    -2305.991 
   10900   -102563.77   -92794.561    237.26693    20721       226768   0.52224153   -55.882351    41.927797    15.521279    435.26327    23.507805    22.162444   0.40596555    435.66923   -2317.1248 
   11000   -102330.38   -92782.216     231.8984    20721    226569.38    24.938636    42.812346   -146.05004     178.0536     435.2886    23.496825    22.152092   0.39329992     435.6819    -2334.289 
   11100   -102508.37    -92768.26    236.56019    20721    226894.46    -10.33265    49.701147    179.19271    -259.8918      435.588    23.505592    22.160358   0.24359869     435.8316   -2339.2208 
   11200   -102462.85    -92750.63    235.88281    20721    226785.34    45.895076    247.32668   -59.615794   -50.025652    435.40407    23.504903    22.159708   0.33556472    435.73964   -2364.7794 
   11300   -102535.59   -92715.946    238.49171    20721    226930.82    13.591525    134.36311   -206.80319    113.21465    435.38691    23.512904    22.167251   0.34414418    435.73106   -2396.7795 
   11400   -102385.51   -92710.786    234.97219    20721     226803.3   -6.7655957    33.652498    90.683541   -144.63283    435.49169    23.503469    22.158356   0.29175323    435.78345   -2404.3554 
   11500    -102418.9   -92702.601    235.98181    20721    226932.67    82.235311    7.0352661    119.70321    119.96745    435.30547    23.515199    22.169415   0.38486508    435.69033   -2413.4514 
   11600   -102511.22   -92693.746    238.43901    20721    226741.39   -54.028392   -109.63214   -184.56236    132.10933    435.52187    23.499446    22.154563   0.27666291    435.79854   -2424.5166 
   11700   -102517.29   -92684.531    238.81033    20721    226726.66   -97.646844   -147.06358   -6.0314116   -139.84554    435.34105    23.503563    22.158444   0.36707448    435.70813   -2431.4451 
   11800   -102412.69     -92635.5    237.46081    20721    227039.93   -43.143526   -260.92989   -76.575774    208.07508    435.36459    23.519159    22.173148   0.35530321     435.7199    -2475.636 
   11900   -102457.07   -92621.147    238.88707    20721    226822.68   -18.302942    52.507754   -148.90842    41.491836    435.49864    23.504285    22.159126   0.28828069    435.78692   -2499.1137 
   12000   -102394.66   -92586.628    238.20987    20721    226766.85    28.809512   -44.737694    176.94295   -45.776714    435.47831    23.501941    22.156916   0.29844566    435.77675   -2538.1934 
   12100    -102353.9   -92599.607    236.90465    20721    226945.27    16.195936   -63.412406    107.83659    4.1636197    435.50084    23.510577    22.165057   0.28718219    435.78802   -2520.0699 
   12200   -102339.18   -92617.341    236.11636    20721    226752.97    41.068568    38.291196     159.7067   -74.792195    435.39905    23.503361    22.158254   0.33807572    435.73712   -2511.3571 
   12300   -102239.97   -92546.768    235.42083    20721    226821.39     63.92072   -13.878123    75.381276      130.259     435.2699    23.510393    22.164884   0.40264917    435.67255   -2579.6217 
   12400   -102305.36   -92598.564    235.75091    20721     226660.5   -37.096072     18.05272   -179.84094    50.500007    435.16811    23.504803    22.159613   0.45354365    435.62166   -2530.1133 
   12500   -102350.42   -92521.852    238.70854    20721    226848.66   -25.533147    101.86046    32.569533   -211.02944    435.30967    23.510733    22.165204   0.38276692    435.69243   -2603.9977 
   12600    -102310.2    -92553.26     236.9688    20721    226689.86    9.1833266   -136.56178   -75.488089    239.59984    435.32761    23.502018    22.156988   0.37379382    435.70141    -2578.018 
   12700   -102238.02   -92538.667    235.57024    20721    227048.78     54.30552    256.24709     25.89309   -119.22362    435.43031    23.517842    22.171907   0.32244535    435.75275   -2587.1189 
   12800   -102306.92    -92518.86    237.72476    20721    226679.51   -18.688657    69.492705    116.36916   -241.92784    435.43235    23.498655    22.153817   0.32142628    435.75377   -2614.8132 
   12900   -102284.87   -92516.977    237.23495    20721    226659.41     18.33741    108.58077    17.563211   -71.131747    435.31169    23.500869    22.155905   0.38175456    435.69345   -2620.6641 
   13000   -102336.27   -92482.753    239.31457    20721    226698.96    27.307479   -32.404452   -187.31197    301.63886    435.51426    23.497453    22.152684   0.28047117    435.79473   -2655.3312 
   13100   -102247.25    -92446.32    238.03719    20721    226755.31   0.68103787   -47.854096    -68.24309     118.1403    435.43506     23.50251    22.157452   0.32007007    435.75513   -2689.9986 
   13200   -102229.91    -92462.64    237.21971    20721    226752.47    6.8388239   -122.63394   -61.254238    204.40465    435.52351    23.499976    22.155063   0.27584425    435.79936    -2675.167 
   13300   -102242.62   -92430.189    238.31648    20721    226780.76    15.527153    48.356505    40.813401   -42.588447    435.49382    23.502243      22.1572   0.29068935    435.78451   -2707.6507 
   13400   -102209.03   -92440.749    237.24431    20721    226556.82      51.6689     126.7197    204.63682   -176.34982    435.32715    23.495133    22.150497   0.37402629    435.70117   -2707.4505 
   13500   -102272.02   -92434.291    238.93093    20721    226732.34    -118.0437   -180.29074    4.4110356   -178.25141    435.47754    23.500174    22.155249   0.29882843    435.77637   -2701.7668 
   13600   -102189.65   -92428.364    237.07444    20721    226699.52    22.362121   -68.400326    450.78066   -315.29397    435.22322    23.505337    22.160117   0.42598931    435.64921   -2716.9183 
   13700   -102243.71   -92453.917    237.76671    20721    226647.02   -68.676721   -134.49912   -161.91121    90.380169    435.22498    23.502568    22.157507   0.42510827    435.65009   -2687.2182 
   13800   -102162.52   -92403.838    237.01129    20721    226673.36     68.69116    47.706378     305.0924    -146.7253    435.24447    23.503407    22.158298   0.41536299    435.65984   -2744.1952 
   13900   -102245.46   -92405.666    238.98122    20721    226753.83    57.405424    43.408996    134.69654   -5.8892601    435.31602    23.505647    22.160409   0.37959171    435.69561   -2740.3563 
   14000   -102238.67   -92381.348    239.40679    20721    226657.92   -2.9185186    72.012612   -47.181557   -33.586611    435.37285    23.499141    22.154276   0.35117715    435.72402   -2764.6895 
   14100   -102205.06   -92389.374    238.39554    20721       226824   -53.403903    87.118206    -317.8011    70.471186    435.46547    23.505249    22.160034   0.30486326    435.77034   -2752.8727 
   14200    -102195.8   -92384.319    238.29357    20721    226882.12   -5.0253414   -121.45864   -162.21256    268.59518    435.37511      23.5107    22.165173   0.35004518    435.72515    -2759.202 
   14300   -102097.16   -92336.432    237.06089    20721    226633.52     69.48243   -85.372526   -3.4480872     297.2679    435.04221    23.506804      22.1615    0.5164936    435.55871   -2816.5362 
   14400   -102046.21   -92260.746    237.66168    20721    226661.23   -10.733284   -103.54361    208.74096    -137.3972     435.2034    23.503887     22.15875   0.43590144     435.6393   -2889.2114 
   14500   -102201.81   -92261.052    241.43341    20721    226857.23   -22.640837    56.244387   -111.86815   -12.298744    435.35782    23.509877    22.164397   0.35869034    435.71651   -2884.0588 
   14600   -102093.74   -92235.609    239.42658    20721    226759.07   -56.857477   -162.12023   -12.660197    4.2079936    435.24955    23.507713    22.162358   0.41282557    435.66237   -2910.5811 
   14700    -102120.1   -92245.373    239.82962    20721    226763.67   -33.751785   -12.115117    97.244999   -186.38524    435.29256     23.50679    22.161487   0.39131794    435.68388   -2904.0266 
   14800   -102033.72   -92256.486    237.46184    20721    226738.87     58.76332   -46.388226    374.48642   -151.80824    435.23133    23.507158    22.161834   0.42193517    435.65326   -2899.5192 
   14900   -101960.03   -92225.562    236.42309    20721    226671.27    57.577649    70.327206   -390.02811    492.43385    435.06671      23.5081    22.162722   0.50424453    435.57096   -2932.1815 
   15000   -102024.06   -92237.486    237.68849    20721     226634.9    54.708267    -42.70541    17.888563    188.94165    435.21131    23.502309    22.157262   0.43194722    435.64325   -2921.9511 
   15100   -102047.84    -92222.77    238.62369    20721    226856.62    18.172808   -91.032178   -63.344943    208.89554    435.50818    23.505786    22.160541   0.28350776    435.79169   -2929.7846 
   15200   -102112.51   -92240.529    239.76297    20721    226864.98    40.526454    15.469119     24.92898    81.181262    435.48707    23.506789    22.161486   0.29406511    435.78113   -2915.0681 
   15300   -102065.57   -92227.715    238.93408    20721    226840.47    38.637568   -35.777566    207.94811   -56.257842    435.33628     23.50959    22.164127    0.3694619    435.70574    -2929.133 
   15400   -102103.67   -92220.063    240.04518    20721     226652.8   -14.657402    8.5611911   -116.40861    63.875216    435.27044     23.50164    22.156632     0.402381    435.67282   -2939.1985 
   15500   -102055.37   -92219.153    238.89429    20721    226633.52   -25.308217   -20.639231   -94.389604    39.104185    435.31503    23.499437    22.154555   0.38008547    435.69511   -2941.4629 
   15600    -102052.8   -92198.166    239.34151    20721    226679.38    50.370635    24.112631   -155.83455    282.83382    435.31793    23.501736    22.156722   0.37863366    435.69657   -2965.3479 
   15700   -102088.18   -92211.901    239.86736    20721    226572.36   -90.222041    -113.0858   -109.01618   -48.564143    434.85803    23.508609    22.163202   0.60858255    435.46662   -2950.0683 
   15800   -102033.65   -92253.185    237.54026    20721    226585.86    59.745838    41.326043   -24.521873    162.43334    434.99403    23.505634    22.160397   0.54058654    435.53461   -2915.4059 
   15900   -102057.69   -92239.595    238.45409    20721    226447.65    23.582124   -108.38416    59.648937    119.48159    434.94385    23.499819    22.154915   0.56567266    435.50953   -2933.8052 
   16000   -102144.51   -92242.748     240.4863    20721    226527.32    -31.41841   -57.876665    272.68475   -309.06332    434.92719    23.504403    22.159237   0.57400508    435.50119   -2925.6831 
   16100   -102102.13   -92257.099    239.10844    20721    226431.49    30.058563    1.6291396    30.350332    58.196219    434.78736    23.503209    22.158111   0.64392152    435.43128   -2918.7314 
   16200   -102126.35    -92250.06    239.86754    20721       226510    43.014296     282.7837    -402.0048    248.26398    434.77305     23.50767    22.162317   0.65107311    435.42413   -2926.7967 
   16300   -102050.44   -92251.393    237.99159    20721    226316.63    84.558481    2.4663015    69.894944     181.3142    434.85612     23.49539    22.150739   0.60954104    435.46566   -2931.9494 
   16400   -102047.87   -92213.502    238.84932    20721    226350.83   -41.644804    21.700363   -93.506333   -53.128442    434.68351     23.50183    22.156811   0.69584605    435.37935   -2964.2386 
   16500   -102080.63   -92208.995    239.75453    20721     226434.8   -45.535752   -157.04992   -117.15557    137.59823    434.93667    23.499347     22.15447   0.56926323    435.50594   -2968.1301 
   16600   -101948.71   -92159.894    237.74294    20721     226326.5    -38.43935   -57.946043   -36.436395   -20.935614    434.85154    23.496026    22.151339   0.61183129    435.46337   -3020.8356 
   16700      -102027   -92125.475    240.48053    20721    226503.77   -1.1837152   -16.600489    152.87102   -139.82168    434.77584    23.507272    22.161941   0.64967787    435.42552   -3055.0066 
   16800   -101999.39   -92140.902    239.43533    20721    226380.77   -4.0064935    106.53711    3.4540774   -122.01066    434.75973    23.501324    22.156334   0.65773541    435.41746   -3041.4286 
   16900   -101925.02    -92120.71    238.11946    20721    226322.62    16.647845   -80.770588    253.04744   -122.33332    434.71354    23.499554    22.154665   0.68082829    435.39437   -3066.0646 
   17000   -102018.67   -92068.909    241.65198    20721    226285.72   -34.194055   -33.245885    20.712249   -90.048529    434.83032    23.494483    22.149884   0.62244198    435.45276    -3117.822 
   17100   -102004.48   -92078.348    241.07817    20721    226270.87   -118.54691   -169.43765   -420.43423    234.23115    434.83198    23.493667    22.149115   0.62160919    435.45359   -3105.9406 
   17200   -101904.39   -92042.297    239.52287    20721    226337.95    16.966764    189.08248   -124.94339     -13.2388    434.82908    23.497227    22.152471   0.62306115    435.45214   -3145.3465 
   17300   -101860.39    -92020.14    238.99229    20721    226333.49    16.487504   -49.753661   -84.069934    183.28611    434.76727    23.498666    22.153828   0.65396713    435.42123   -3169.1883 
   17400   -101909.67   -91986.291     241.0112    20721    226390.89    20.813492   -68.556134    249.79242   -118.79581    434.56249    23.507182    22.161857    0.7563547    435.31885   -3202.4966 
   17500   -101916.52    -91993.21    241.00943    20721    226483.23   -12.370785    114.04745    172.56812   -323.72792     434.7424     23.50711    22.161789   0.66640029     435.4088    -3192.167 
   17600    -101992.2   -91995.121    242.80114    20721    226221.56   -49.955312    31.332793   -62.448056   -118.75067    434.50959     23.49982    22.154916   0.78280447     435.2924   -3199.0721 
   17700   -101710.11   -91982.365    236.25992    20721    226287.52    63.343007    5.8040334   -40.907387    225.13237    434.40384    23.506106    22.160842   0.83567951    435.23952   -3213.1362 
   17800   -101821.51   -91930.131    240.23392    20721    226359.82   -15.059636   -89.536847    65.477789   -21.119851    434.50492    23.507126    22.161804   0.78514166    435.29006   -3261.2506 
   17900   -101851.79   -91937.078    240.80066    20721    226397.75    31.145104   -13.950636   -9.3724562     116.7584    434.61158     23.50621    22.160941   0.73180894    435.34339   -3257.9793 
   18000   -101846.07   -91961.848    240.06031    20721    226196.65   -26.169415   -99.728437   -63.626696    84.846888    434.36128    23.502537    22.157477   0.85695846    435.21824    -3236.794 
   18100   -101897.31   -91956.592     241.4324    20721    226449.11   -12.405564   -129.49122    98.487482   -6.2129506    434.47201    23.512652    22.167014   0.80159672     435.2736   -3234.9247 
   18200   -101876.65   -91954.734    240.97571    20721    226290.91    18.840747    -9.276654      184.772    -118.9731    434.33723    23.508084    22.162707   0.86898658    435.20621   -3245.3777 
   18300   -101795.95   -91964.072    238.78896    20721    226218.36    26.189751    -44.03724   -143.23471     265.8412     434.2892    23.505615    22.160379   0.89299767     435.1822   -3239.2759 
   18400   -101790.94   -91908.741     240.0112    20721    226308.65     55.07041   -94.798002    103.94431    156.06492    434.27348    23.510731    22.165203   0.90085913    435.17434   -3295.0051 
   18500   -101930.19   -91897.764    243.65979    20721    226253.47    33.119049    10.952902    201.10012   -112.69587    434.42214    23.503842    22.158708    0.8265297    435.24867   -3307.9565 
   18600   -101791.44   -91908.687    240.02447    20721    226327.16   -50.260177    2.6581453   -179.89916     26.46048    434.55496    23.504077    22.158929   0.76012231    435.31508   -3289.5203 
   18700   -101811.83   -91861.311    241.67027    20721    226187.08    12.488038   -63.754178    267.83962   -166.62133    434.46294     23.49929    22.154416   0.80613149    435.26907   -3347.2876 
   18800   -101787.25    -91846.54    241.43221    20721    226248.82    48.064043   -124.47585     327.5254   -58.857419    434.31109    23.506605    22.161313   0.88205334    435.19315   -3360.9373 
   18900   -101794.85   -91848.675    241.56481    20721    226186.26   -33.520832    60.222281   -15.529659   -145.25512    434.22386    23.505716    22.160474   0.92566862    435.14953   -3357.3933 
   19000   -101898.28   -91869.854    243.56245    20721    226221.36   -107.98487    30.875644   -128.58732   -226.24293    434.35194    23.504074    22.158926   0.86162854    435.21357   -3333.8214 
   19100   -101700.58   -91843.139    239.40974    20721    226052.14   -10.798962   -27.839146   -61.326075    56.768335    433.97221    23.505558    22.160326    1.0514971     435.0237   -3368.8204 
   19200   -101753.94    -91847.15    240.60832    20721    226058.09    42.341546    88.716814   -154.99464    193.30246    433.82716    23.509797    22.164322    1.1240201    434.95118   -3368.4034 
   19300   -101678.83   -91829.451    239.21389    20721    226058.89   -28.503969    54.009471   -234.55696     95.03558    434.09087    23.502696    22.157628   0.99216705    435.08303   -3385.7104 
   19400   -101804.56   -91822.325    242.44068    20721    226149.85   -66.751533   -212.76126    42.814411   -30.307747    434.24308    23.503304      22.1582   0.91605782    435.15914   -3388.7137 
   19500   -101738.77   -91801.548    241.34736    20721    225919.43   -60.660237    5.3999224   -13.030792   -174.34984    434.04107    23.496793    22.152062    1.0170659    435.05813   -3416.1957 
   19600   -101784.72   -91804.484    242.39213    20721    225933.37   -35.356113    132.85551   -347.21219    108.28834     434.1911    23.493458    22.148918   0.94204949    435.13315   -3416.8966 
   19700   -101790.34   -91800.044    242.63641    20721    225920.55    -59.63482   -283.01185    -278.5241    382.63149    434.09529    23.495384    22.150734   0.98995689    435.08524   -3421.8261 
   19800   -101866.08   -91800.026     244.4765    20721    225966.02   -108.92254   -190.01448   -46.070329   -90.682807    433.86666    23.503939    22.158799    1.1042684    434.97093   -3419.4477 
   19900   -101715.47   -91791.476    241.02629    20721    226036.28   -16.767942    31.357066     72.50979   -154.17068     433.7958    23.509512    22.164054    1.1397008     434.9355   -3430.2714 
   20000   -101674.94   -91825.705    239.21035    20721    226039.71    70.215888    159.26408    20.031578    31.352005     433.9095     23.50661    22.161317    1.0828476    434.99235   -3400.2977 
   20100   -101739.76   -91817.926     240.9737    20721    225971.98    37.320007    127.25199    86.798564   -102.09054    433.84181    23.504922    22.159726     1.116696     434.9585   -3411.7361 
   20200    -101678.3   -91809.858    239.67701    20721    226037.57    23.750403    57.092789   -79.729482    93.887903     434.0149    23.503644    22.158521    1.0301517    435.04505   -3417.0979 
   20300   -101766.82   -91827.883    241.38909    20721    226031.55    3.9143332   -75.703596    124.39919   -36.952592     434.0918     23.50125    22.156264   0.99169908     435.0835   -3400.5002 
   20400   -101755.44    -91784.17    242.17435    20721    226152.29   -105.98606   -58.323136   -349.53997    89.904937    434.10896    23.507061    22.161743   0.98312073    435.09208   -3435.6828 
   20500   -101650.19   -91724.056    241.07809    20721    226148.81     13.76757    140.53461      61.1063    -160.3382    434.28559    23.502099    22.157065   0.89480258     435.1804   -3504.0073 
   20600   -101691.63    -91779.67    240.73397    20721    226182.51    73.532711    141.87016    178.98504   -100.25707    433.95005    23.512935    22.167281    1.0625739    435.01263   -3451.2947 
   20700   -101698.03   -91707.703    242.63717    20721    226313.44   -123.74461   -56.009307   -5.2539255    -309.9706    433.86501    23.522045    22.175869    1.1050967     434.9701   -3510.9959 
   20800   -101601.72    -91662.98    241.38425    20721    226187.98    68.206648    177.15976    22.318638    5.1415424    434.31667    23.503294    22.158191   0.87926694    435.19593   -3569.3298 
   20900   -101624.33   -91700.552    241.02091    20721    226043.05    -3.481075    -72.35057   -117.23692    179.14426    434.22641    23.498204    22.153393   0.92439611     435.1508   -3533.4461 
   21000   -101690.86   -91639.667    244.11548    20721     226119.1   -112.36055   -229.77208   -145.65449    38.344926    434.03311     23.50739    22.162053    1.0210457    435.05415   -3587.9217 
   21100   -101594.33   -91641.815    241.71882    20721       226028   -96.076244    -20.41442   -85.568349   -182.24596    434.08123    23.501352     22.15636   0.99698591    435.07821   -3590.1713 
   21200   -101714.43   -91636.887    244.75546    20721    226114.85   -42.489395   -59.999645    286.69281   -354.16135    434.17404    23.503354    22.158247   0.95057843    435.12462   -3596.4696 
   21300   -101631.78    -91600.57    243.63023    20721    226018.73   -22.259414    31.285971   -1.5222181   -96.541994    434.28027    23.495483    22.150827   0.89746363    435.17774   -3636.3117 
   21400   -101640.22   -91590.979    244.06809    20721     226167.8     -10.0017   -44.074265    203.75179   -189.68263    434.14714    23.506833    22.161528   0.96402959    435.11117   -3642.7795 
   21500   -101547.14    -91572.48    242.25662    20721    226035.07     32.24044    226.69354   -48.240329   -81.731888    434.11761    23.500734    22.155778    0.9787937    435.09641   -3668.2289 
   21600   -101554.25   -91551.871       242.93    20721    226089.65    16.639725   -122.04332    254.11764    -82.15514    434.02175    23.506167    22.160899    1.0267271    435.04847   -3686.7725 
   21700   -101558.18   -91548.051    243.11809    20721    226077.29   -46.105316   -131.53481    107.05841   -113.83954    433.96369    23.507096    22.161776    1.0557572    435.01944   -3687.2979 
   21800   -101542.73   -91550.196    242.69073    20721    225981.46    50.473902    124.41625   -15.668067    42.673522    433.83678    23.505551    22.160319    1.1192087    434.95599   -3695.0337 
   21900   -101617.95   -91535.296    244.87965    20721     226055.6   -17.103664   -70.512285   -27.822356     47.02365    433.76472    23.511359    22.165795    1.1552422    434.91996   -3706.6572 
   22000   -101538.74   -91554.391     242.4921    20721    225973.68   -15.260875   -28.333899    151.54991   -168.99863    433.79754    23.506209    22.160939    1.1388277    434.93637    -3690.249 
   22100   -101507.34   -91535.529    242.18756    20721    225951.43   -4.5043055    28.233445    102.02345   -143.76981    433.64675    23.509139    22.163701    1.2142267    434.86097   -3710.3361 
   22200   -101551.89   -91546.199    243.01045    20721    225916.21    68.799564   -165.03847    44.226224    327.21094    433.80181    23.503104    22.158012    1.1366937    434.93851   -3706.6816 
   22300   -101554.87   -91536.465    243.31919    20721    225985.97    71.153281     140.2756    42.460428    30.723817    433.52759    23.514167    22.168441    1.2738072    434.80139   -3716.9224 
   22400   -101536.24   -91535.746    242.88422    20721    225990.56    9.7089291   -105.30027    96.425081    38.001981    433.67238    23.510479    22.164965    1.2014088    434.87379   -3715.5674 
   22500   -101541.78   -91537.579    242.97415    20721    225948.63    2.2801577   -20.543379    48.063633   -20.679781    433.71048    23.507266    22.161935    1.1823623    434.89284   -3715.0537 
   22600   -101468.73   -91498.561    242.14754    20721    225942.53    17.492077   -100.22115    193.70053   -41.003153    433.63886    23.508889    22.163466    1.2181712    434.85703   -3755.3436 
   22700   -101487.59   -91469.196    243.31893    20721    225757.56   -28.119165      104.749    1.7782945   -190.88479    433.75815    23.496033    22.151345     1.158526    434.91667   -3788.6555 
   22800   -101518.53   -91449.304    244.55352    20721    225994.98    -69.84302   -94.418381   -85.077903   -30.032775     433.8848    23.504954    22.159756    1.0952013       434.98    -3799.252 
   22900   -101526.79   -91519.164    243.05724    20721    225885.35    161.91215     160.1266    264.81114    60.798712    433.80957    23.501289    22.156301    1.1328144    434.94239   -3748.0763 
   23000   -101440.35   -91478.098    241.95533    20721    225924.33   -32.615673   -115.86923    88.188294   -70.166088    433.90122    23.500834    22.155872    1.0869912    434.98821   -3777.2154 
   23100   -101414.26   -91452.341    241.94723    20721    225978.36    36.541684    65.962129   -126.41639    170.07932    434.18223    23.496037    22.151349   0.94648342    435.12872   -3805.1666 
   23200   -101424.81   -91444.974    242.38232    20721    226170.97    20.795921    224.56536   -259.39684    97.219249    434.04055    23.509884    22.164404    1.0173259    435.05787   -3808.0029 
   23300   -101430.47   -91406.286    243.45961    20721    226068.42   -9.5688258   -54.672026   -15.114111     41.07966    433.94617     23.50711    22.161788    1.0645139    435.01069   -3849.5274 
   23400   -101381.32   -91393.026    242.58789    20721    226041.63    1.5360224     56.86013    55.708202   -107.96026    433.91324    23.506609    22.161316    1.0809821    434.99422   -3865.2261 
   23500   -101451.96   -91407.554    243.95055    20721    226063.94    6.1252226    165.14663    229.30043    -376.0714    434.01057    23.505132    22.159924    1.0323145    435.04289   -3852.2594 
   23600   -101501.49   -91443.934    244.26998    20721    226068.63   -1.8010141    182.96639    116.75228   -305.12171    433.71475    23.513391     22.16771    1.1802249    434.89498    -3819.682 
   23700    -101506.8   -91403.634    245.37784    20721    226121.05    99.590589   -3.6914405    188.09211    114.37109    433.58453    23.519648    22.173609    1.2453354    434.82986   -3862.6758 
   23800   -101486.58   -91376.779    245.53889    20721    226076.63   -62.785647   -141.60852   -104.93841    58.189984    433.61145    23.516608    22.170743    1.2318744    434.84333   -3883.5202 
   23900   -101457.92   -91361.769    245.20729    20721    225945.75    15.705967    147.70037    -266.6962    166.11373    433.76038    23.505763    22.160519    1.1574098    434.91779   -3906.5962 
   24000   -101381.21   -91354.987    243.50891    20721    226030.02   -2.0875935    28.625418   -146.01763    111.12944    433.90236      23.5063    22.161025    1.0864193    434.98878   -3909.5032 
   24100   -101371.64   -91359.435    243.16867    20721    225991.97   -29.756181   -72.576483    -218.6796    201.98754    433.87044    23.505186    22.159975    1.1023786    434.97282   -3908.8742 
   24200   -101402.36     -91413.1    242.61127    20721    226053.54    40.599571    59.790296    43.166674    18.841741    433.94538    23.506357    22.161079    1.0649097    435.01029   -3854.6842 
   24300   -101400.69   -91431.165    242.13187    20721    226009.28    45.532087     10.19428    113.01681    13.385166    433.61214    23.513086    22.167423    1.2315282    434.84367   -3839.8051 
   24400   -101476.13   -91422.691    244.16996    20721    226279.17     58.29655    131.99185   -168.17048    211.06828    433.71447    23.524345    22.178037     1.180363    434.89484   -3844.2784 
   24500    -101451.2   -91387.159    244.42746    20721    226126.05   -20.385049  -0.75086703    -15.44677    -44.95751    433.68668    23.517138    22.171243    1.1942613    434.88094   -3880.4484 
   24600      -101400   -91350.614    244.07161    20721     226172.9    20.621594   -116.14122    147.33924    30.666766    433.67658    23.519848    22.173798    1.1993111    434.87589   -3918.2966 
   24700   -101426.42   -91339.369    244.98632    20721    226182.53    -59.11977   -72.223183   -182.88424    77.748116    434.06595    23.509797    22.164322    1.0046258    435.07057   -3927.8695 
   24800   -101430.83   -91326.269    245.41152    20721    226308.39     34.26463    2.9655673    121.16287   -21.334544     433.9243    23.520175    22.174106    1.0754507    434.99975   -3942.2817 
   24900   -101337.91   -91280.601    244.26391    20721    226021.47   -75.291446   -6.4125181   -176.67635   -42.785468    433.77738    23.509241    22.163798    1.1489088    434.92629   -3990.8329 
   25000   -101400.59   -91261.172    246.25826    20721    226072.49   -93.031482   -231.10219    -57.90543     9.913173    434.03319    23.504965    22.159766     1.021007    435.05419   -4008.1363 
   25100   -101332.34   -91279.648    244.15175    20721    226057.91    69.937329     305.8368    88.968626   -184.99344    433.95172    23.506413    22.161132    1.0617423    435.01346    -4000.354 
   25200   -101315.99   -91265.306    244.10318    20721    226052.52   -41.740834   -397.74176    137.91116    134.60809    433.73136    23.512103    22.166496      1.17192    434.90328   -4009.6832 
   25300   -101385.05   -91323.993    244.35511    20721    226088.97    102.09201    171.77297    189.69244   -55.189362    433.87884    23.510002    22.164516    1.0981825    434.97702    -3959.741 
   25400   -101403.43    -91267.87    246.16442    20721    226091.63   -36.208425   -165.29135   -28.650381    85.316459    433.76599    23.513198    22.167529    1.1546049     434.9206      -4010.2 
   25500    -101301.1   -91258.277     243.9121    20721    225992.99    65.848083     143.7802    144.45579   -90.691737    433.78237    23.507625    22.162274    1.1464159    434.92878    -4029.717 
   25600   -101303.06   -91254.894    244.04195    20721    225808.25   -21.740046   -87.745659    102.78524   -80.259714    433.57188    23.503718     22.15859    1.2516579    434.82354   -4034.0081 
   25700   -101358.73   -91241.016    245.73097    20721    225917.29    21.972657   -25.002932    76.424221    14.496684    433.62299    23.508007    22.162634     1.226106    434.84909   -4047.3997 
   25800   -101336.64    -91220.75     245.6869    20721    225916.57    -85.19005   -85.934697    82.640664   -252.27612     433.6963    23.505982    22.160725    1.1894514    434.88575   -4064.2932 
   25900    -101362.8   -91221.314    246.30854    20721    225991.85   -34.029063   -131.17151   -113.84861    142.93293     433.5857    23.512896    22.167244    1.2447477    434.83045   -4064.3994 
   26000   -101294.49   -91210.841    244.90384    20721    225863.98    71.658929    163.27181   -127.11359    178.81856    433.43375    23.510363    22.164856    1.3207237    434.75448    -4084.008 
   26100   -101310.06   -91177.702    246.08665    20721     226016.7    73.650396   -149.23457    193.01635    177.16941     433.8214    23.507801     22.16244    1.1269006     434.9483   -4112.8406 
   26200   -101204.18   -91178.136     243.5046    20721    226176.82    117.79962    285.90909     128.7142   -61.224426    433.68339    23.519867    22.173816    1.1959074    434.87929   -4112.3221 
   26300   -101258.07   -91205.492    244.14898    20721    225979.56    59.472685   -61.176088    285.28303   -45.688889    433.81103     23.50615    22.160883    1.1320837    434.94312   -4087.5286 
   26400   -101285.31    -91167.48    245.73378    20721    226061.75    48.816679    260.88198    93.481548   -207.91349     433.7508    23.512056    22.166452    1.1621993      434.913   -4124.3264 
   26500   -101192.55   -91186.621    243.01608    20721    226145.62    85.405418    116.51808   -21.657725     161.3559    433.72281    23.517177    22.171279    1.1761969      434.899   -4106.4029 
   26600   -101296.81   -91161.597    246.15602    20721    226354.12   -11.858747     51.23281   -83.395854   -3.4131965    434.05522    23.519004    22.173002    1.0099922    435.06521   -4123.4299 
   26700    -101306.1   -91160.166    246.41638    20721    226214.57    -38.15634   -119.63194   -132.21054    137.37346    434.21279    23.507487    22.162144   0.93120331      435.144   -4128.0417 
   26800   -101196.56     -91147.1    244.07341    20721    226268.25    27.023369   -150.49944      159.031    72.538554    433.84857    23.520142    22.174075    1.1133145    434.96189   -4140.4202 
   26900   -101178.52   -91124.007    244.19611    20721    226369.63   -6.1463571   -191.62246    220.20262   -47.019235    433.67469    23.530126    22.183488     1.200257    434.87494   -4161.7171 
   27000   -101248.17   -91118.902    246.01182    20721    226335.87     -26.8375    36.524208   -142.26789     25.23118    433.76076    23.526037    22.179633    1.1572206    434.91798   -4169.1593 
   27100   -101251.98   -91130.336    245.82643    20721    226138.25    -89.89799   -109.12794   -262.89439    102.32835     433.6461    23.518873    22.172878    1.2145518    434.86065   -4160.9185 
   27200   -101247.63   -91091.637    246.66064    20721    226319.99    10.267374    -7.670643    -144.3582    182.83097    434.05306    23.517289    22.171385    1.0110714    435.06413   -4200.2602 
   27300   -101321.65   -91058.364    249.26653    20721    226295.34   -150.89732   -56.293907   -74.900609   -321.49745    433.69494    23.525716     22.17933    1.1901321    434.88507   -4229.7341 
   27400   -101138.98   -91004.715    246.13303    20721    226239.52    42.609126    54.888344    45.353476    27.585557    434.07966    23.512388    22.166764     0.997769    435.07743   -4293.4079 
   27500   -101147.47   -91034.574    245.61395    20721    226200.89    15.231151    63.258672    292.95192   -310.51714    433.89262    23.515447    22.169648    1.0912889    434.98391   -4264.3586 
   27600   -101111.97   -91036.383    244.70799    20721    226174.72   -64.243311   -1.3982263   -230.69836    39.366653    434.14192    23.507334       22.162   0.96663815    435.10856   -4260.0624 
   27700   -101173.57   -91071.473    245.35175    20721    226114.38    44.173328   -124.63226   -46.367564     303.5198    433.82763    23.512711    22.167069    1.1237849    434.95142   -4234.2279 
   27800   -101349.26   -91109.848    248.68689    20721    225881.57   -108.51909   -46.061058   -297.65132    18.155101    433.73844    23.503019    22.157932    1.1683806    434.90682   -4199.2833 
   27900   -101214.92   -91142.498    244.63105    20721    225953.62    27.768242    15.004338    59.921575    8.3788142     433.5109    23.512936    22.167281    1.2821509    434.79305   -4168.8011 
   28000   -101216.88   -91108.725    245.49893    20721    225800.39    53.160952    17.417036   -233.38089    375.44671    433.34104    23.509568    22.164106    1.3670808    434.70812   -4209.7335 
   28100   -101197.17   -91091.709    245.43359    20721    225867.73    29.840447   -84.735547    198.74366   -24.486769    433.55752    23.507202    22.161876    1.2588419    434.81636   -4225.0932 
   28200   -101267.62   -91067.748    247.72646    20721    225720.17    10.468207   -64.242703    64.798701    30.848623     433.4194    23.503267    22.158165    1.3279006     434.7473   -4252.4516 
   28300   -101157.47   -91087.587     244.5694    20721    225806.04    90.610784    169.60116      135.423   -33.191801    433.14114    23.515286    22.169497    1.4670307    434.60817   -4237.3112 
   28400   -101247.59   -91063.551    247.34197    20721    226054.65    52.778297    87.314263    52.019691    19.000938    433.52231    23.517883    22.171945    1.2764464    434.79875   -4254.8527 
   28500   -101225.16   -91049.821    247.13072    20721    225850.36    66.132219    31.440196    7.5785728    159.37789    433.64155    23.504021    22.158876    1.2168229    434.85838   -4274.2086 
   28600   -101191.13   -91024.211    246.92608    20721    226033.38   -41.769048   -127.98092    67.057847   -64.384075    433.43864    23.519046    22.173041    1.3182821    434.75692   -4289.3135 
   28700   -101156.15   -91018.662    246.21129    20721    226017.52   -10.423274    163.20521   -331.94537    137.47034    433.31829    23.521486    22.175342    1.3784574    434.69674   -4298.3383 
   28800   -101185.52   -91074.923     245.5583    20721    226056.31    108.39718   -90.438021    116.39588    299.23369    433.38355    23.521733    22.175575    1.3458237    434.72938    -4247.853 
   28900   -101198.79   -91071.552    245.96238    20721    225960.58   -93.304532   -23.533267     -277.769    21.388673    433.38033     23.51684    22.170962    1.3474358    434.72776   -4245.6316 
   29000   -101289.84    -91059.95    248.45545    20721    225943.83   -87.386931   -247.93883    7.0876348   -21.309593    433.52051    23.512166    22.166555    1.2773445    434.79786   -4260.3258 
   29100   -101191.51   -91032.885    246.72466    20721    225874.16    65.390087   -29.525684   -25.288575    250.98452    433.54974    23.507748     22.16239    1.2627306    434.81247   -4297.9108 
   29200   -101071.05   -90970.972    245.30284    20721    226124.19    81.811045     -39.2952   -26.848964     311.5773     433.7192     23.51616    22.170321    1.1780017     434.8972   -4353.5419 
   29300   -101152.07   -90967.418    247.35692    20721    225930.63    52.080889   -17.099867    73.294936     100.0476    433.79522    23.504033    22.158888    1.1399885    434.93521   -4364.0191 
   29400   -101162.96   -90961.716    247.75985    20721    225927.37   -22.572896   -45.928059    65.396655   -87.187285    433.57776    23.509757    22.164284    1.2487209    434.82648   -4367.3709 
   29500   -101115.65   -90944.775    247.02226    20721    225966.74    10.453488   -118.39393    118.49711    31.257284    433.43911    23.515565     22.16976    1.3180426    434.75716   -4383.1276 
   29600   -101095.84   -90895.534    247.73696    20721    225876.18   -37.536952    16.785746    13.744509   -143.14111    433.18911    23.517636    22.171712    1.4430447    434.63216   -4434.7856 
   29700   -101008.35   -90876.188    246.08186    20721    225800.87   -7.5930918   -82.433487    95.515843   -35.861631    433.08553    23.516527    22.170667    1.4948349    434.58037   -4459.0557 
   29800    -101074.3   -90883.986    247.49431    20721    225993.48   -1.5559438   -39.608643    169.91384   -134.97303    433.13899    23.525103    22.178752    1.4681025     434.6071   -4446.8237 
   29900    -100963.9   -90886.874    244.74295    20721    225780.44    49.398002   -171.68464   -36.970403    356.84905     433.0942    23.515228    22.169442    1.4905013     434.5847    -4453.454 
   30000   -101060.87   -90927.905    246.10154    20721    225837.45    -35.55917   -64.941382   -318.37195    276.63583    433.29597     23.51272    22.167078     1.389616    434.68558   -4410.2959 
   30100   -101041.31   -90892.671    246.48207    20721    225815.81    67.982575    140.40321    27.854055    35.690462    433.52946    23.505261    22.160046    1.2728695    434.80233    -4452.394 
   30200   -100997.33    -90846.13    246.54442    20721    226042.36   -48.085878    49.616459   -84.524585   -109.34951    433.83841    23.508674    22.163263    1.1183933    434.95681   -4485.5828 
   30300   -100951.38    -90798.85    246.57672    20721       225947    14.952992   -115.44179    298.65653   -138.35576    433.46149    23.513931     22.16822    1.3068549    434.76835   -4540.5238 
   30400   -100974.05   -90780.803    247.56565    20721    225798.19   -17.370649    36.228464     -80.9311   -7.4093102    433.45978    23.506233    22.160962    1.3077106    434.76749   -4562.6314 
   30500   -100998.61   -90804.348    247.59029    20721    225880.61  -0.71465844     40.22546   -10.799916   -31.569519    433.67297    23.504744    22.159558    1.2011164    434.87408   -4541.6174 
   30600   -100950.83    -90825.07    245.92647    20721    225949.97    18.636593   -16.805032   -225.31812    298.03293    433.36713    23.516646    22.170779    1.3540345    434.72117   -4517.9972 
   30700   -101064.31   -90896.792    246.94062    20721     225526.6    -22.82293   -126.86232    47.348963    11.044564    433.21551    23.498714    22.153874    1.4298437    434.64536   -4457.9237 
   30800   -101022.12   -90857.059    246.88104    20721    225660.86     90.98663   -92.663538    303.28307    62.340358     433.2105    23.505844    22.160595    1.4323487    434.64285   -4502.1503 
   30900   -101082.72   -90881.418    247.76124    20721    225813.85   -17.275273   -208.55246     106.6619    50.064745     433.3714    23.509445     22.16399     1.351899     434.7233   -4469.7178 
   31000   -101011.12   -90880.882    246.03523    20721    225753.67   0.66963746   -321.16579    232.11351    91.061194    433.23458    23.510024    22.164536    1.4203079    434.65489   -4473.0467 
   31100   -101068.87   -90843.679    248.34127    20721    225796.38    4.8664166   -61.248836    154.48732   -78.639232    433.30178    23.510424    22.164913    1.3867087    434.68849   -4511.1656 
   31200   -101022.58   -90875.715    246.43898    20721    225729.63     86.17225    16.575744    130.24159    111.69941    433.08585    23.512808    22.167161    1.4946751    434.58052   -4487.1635 
   31300   -101014.09   -90818.666    247.61848    20721    225706.43   -33.008168    -138.9861   -175.72298    215.68458    433.22268    23.507887    22.162521     1.426261    434.64894   -4539.7213 
   31400   -100984.63   -90839.465    246.39778    20721    225502.39    40.443798    1.0222129   -2.9477174     123.2569    432.94351    23.504833    22.159642     1.565844    434.50936    -4529.487 
   31500   -101020.49   -90826.335    247.58766    20721    225885.65    35.935345   -45.457724    114.98869    38.275065    433.83375    23.500649    22.155698    1.1207262    434.95447    -4533.006 
   31600   -100963.96   -90855.171     245.5144    20721    225668.44    8.0696536    22.522653     1.894309   -0.2080017    433.39306    23.501287    22.156299    1.3410717    434.73413   -4510.2464 
   31700   -101058.78    -90804.04    249.05898    20721    225644.96   -68.448246   -143.40228    51.639995   -113.58245    433.37336    23.500599     22.15565    1.3509212    434.72428   -4560.1613 
   31800   -100916.35   -90769.945    246.42779    20721    225864.12    133.81184    192.94244    204.79504    3.6980401     433.4393     23.51022    22.164721    1.3179481    434.75725   -4597.5678 
   31900   -100967.27   -90756.794    247.98406    20721    225846.47   -43.400918     188.4142   -99.256824   -219.36013     433.5403    23.506563    22.161273    1.2674503    434.80775   -4603.9609 
   32000   -100953.97   -90753.069    247.75148    20721    225883.67    4.9468504   -139.75143   -92.738725    247.33071    433.64897    23.505553    22.160321    1.2131156    434.86208   -4610.5356 
   32100   -100926.17   -90727.382    247.70026    20721    226048.32    58.113575   -54.931521    79.032626    150.23962    433.74058    23.511635    22.166055    1.1673098    434.90789   -4635.2511 
   32200   -100923.07    -90757.72      246.888    20721    225899.63    56.673281    89.851936   -9.0761339     89.24404    433.69864    23.505037    22.159835    1.1882791    434.88692    -4609.189 
   32300   -100911.41   -90754.502    246.68312    20721    225896.55    33.479053   -21.522246    258.66549   -136.70609    433.78499    23.502537    22.157478    1.1451071    434.93009   -4611.0515 
   32400    -100890.4   -90706.639    247.33529    20721    226044.82   -52.951954   -16.102141    99.977476    -242.7312    434.08725    23.502063     22.15703   0.99397601    435.08122   -4651.7244 
   32500   -100841.84   -90712.664    246.00945    20721    225950.51    98.855607   -3.2999715    90.141872    209.72492    433.87589    23.502882    22.157803    1.0996553    434.97554   -4659.0506 
   32600   -100987.79   -90715.655    249.48163    20721    226059.56     28.98411    63.158044   -117.69148    141.48576    433.80831    23.510384    22.164875    1.1334463    434.94175   -4650.2933 
   32700   -100883.79   -90701.354    247.30298    20721    226112.63    24.680929    34.255584    87.588861   -47.801659    433.92831    23.509892    22.164411    1.0734445    435.00176   -4662.4537 
   32800   -100953.45   -90713.978    248.68822    20721    226151.22   -30.063533   -83.246966    114.45327    -121.3969    434.20337    23.504449     22.15928   0.93591263    435.13929   -4647.1574 
   32900    -100967.6   -90756.966    247.98784    20721    225994.68    123.02999    260.41533  -0.24663702    108.92128    434.13799    23.498083    22.153278   0.96860518    435.10659   -4617.6875 
   33000   -100864.57   -90716.037    246.47954    20721    226174.42    99.048173    116.18984    148.33761    32.617067    434.18463    23.506163    22.160896   0.94528286    435.12992   -4654.4673 
   33100   -100895.71    -90742.77    246.58659    20721    225847.79    77.786013    102.16604    214.44328   -83.251288    433.76554    23.500528    22.155583    1.1548292    434.92037   -4636.4037 
   33200   -101019.42    -90714.35    250.28132    20721    225899.87   -92.822192   -60.763645   -7.6509757   -210.05195    433.84969    23.500958    22.155988    1.1127548    434.96245   -4656.6635 
   33300   -100964.58   -90722.561    248.75009    20721     225902.6    9.0903341   -58.159133    82.151796    3.2783391    433.76716    23.503335     22.15823    1.1540193    434.92118   -4653.3529 
   33400   -100862.84   -90700.835     246.8067    20721    225906.75     125.8951    34.547962    211.38903     131.7483    433.67231    23.506122    22.160857    1.2014463    434.87375   -4682.3156 
   33500   -100977.18   -90696.906    249.67912    20721    225875.33   -19.544157    32.167009   -21.566244   -69.233236    433.45868    23.510278    22.164775    1.3082604    434.76694   -4682.8414 
   33600   -100937.09   -90687.569    248.93234    20721    225862.08    34.513514    153.38649   -116.47546    66.629511    433.42728     23.51044    22.164928    1.3239576    434.75124   -4694.1116 
   33700   -100854.85   -90679.801     247.1235    20721    225903.38   -80.106651   -32.280482     116.5532   -324.59267    433.59339    23.508085    22.162708     1.240903     434.8343   -4695.9011 
   33800   -100905.96   -90669.988    248.60313    20721    226041.13   -29.775655     -189.956    58.277335    42.351698    433.64287     23.51391    22.168199     1.216164    434.85904   -4705.3983 
   33900   -100880.64   -90637.564    248.77578    20721     226001.2   -6.7697363   -2.4532516    353.37894   -371.23489     433.6316    23.512138    22.166529    1.2218014     434.8534   -4740.8272 
   34000   -100860.15   -90667.894     247.5416    20721    226023.54   -34.714089   -112.51827     277.8023    -269.4263    433.51465    23.516472    22.170615     1.280277    434.79492   -4710.6616 
   34100   -100859.16    -90667.87    247.51796    20721    226038.63     60.98649    101.65549   -136.98777    218.29175    433.70417    23.512118     22.16651    1.1855168    434.88968   -4716.2469 
   34200    -100820.5   -90653.461    246.92898    20721    225959.12    50.785793    145.52078    86.051308   -79.214703    433.78706    23.505736    22.160493    1.1440698    434.93113    -4731.792 
   34300   -100988.68   -90658.514    250.89085    20721    225918.66   -39.959721   -10.956635    21.810874    -130.7334    433.34432    23.515635    22.169826    1.3654421    434.70976   -4727.6812 
   34400   -100921.64   -90632.699    249.88978    20721    226162.83   -22.779827     84.87022    36.201529   -189.41123    433.73195    23.517823    22.171889    1.1716248    434.90358   -4747.8085 
   34500   -100924.92   -90639.136    249.81304    20721    225970.79    66.598253    112.12173    114.89688   -27.223849    433.55357    23.512672    22.167032    1.2608163    434.81438   -4752.3686 
   34600   -100862.74   -90589.232    249.51488    20721    226120.44   -90.460039   -38.674681   -236.47638    3.7709447    433.43067    23.523791    22.177515    1.3222661    434.75293    -4791.245 
   34700   -100886.72   -90620.043      249.349    20721    226031.59   -49.195466    2.8880627    16.495093   -166.96955    433.42442    23.519338    22.173317    1.3253906    434.74981   -4767.4535 
   34800    -100907.6   -90606.057    250.19584    20721    226084.68   -14.779733    73.718718    17.048877   -135.10679    433.66853    23.515479    22.169679    1.2033367    434.87186   -4782.4956 
   34900   -100829.69   -90628.772    247.75186    20721     225910.2    44.833034     107.4279    255.79467   -228.72347    433.23044    23.518285    22.172324    1.4223782    434.65282   -4767.3305 
   35000   -100831.06   -90610.349    248.23263    20721    226002.41    37.986052   -181.05257    136.15427    158.85646    433.23681    23.522912    22.176686    1.4191935    434.65601   -4786.2549 
   35100   -100878.76   -90622.398    249.09854    20721    226045.86    106.94917   -18.812259    181.07143    158.58835    433.48638      23.5184    22.172432    1.2944104    434.78079    -4777.098 
   35200    -100828.1   -90628.773    247.71313    20721    225974.14   -34.200647    47.636904   -43.200802   -107.03804    433.27496    23.520405    22.174323    1.4001214    434.67508    -4768.467 
   35300   -100837.43   -90601.706    248.59729    20721    225899.24    72.528824    253.21918     21.02778   -56.660488    433.50492    23.510268    22.164766    1.2851377    434.79006   -4804.8021 
   35400   -100866.63    -90580.05    249.83241    20721    225824.42    20.280833    78.734329   -129.84936    111.95753    433.51684    23.506051    22.160791    1.2791812    434.79602   -4826.2251 
   35500   -100960.46   -90591.766     251.8266    20721    225934.75    -70.49256   -204.28729    8.9062208   -16.096606    433.72741    23.506085    22.160822    1.1738934    434.90131   -4809.2202 
   35600   -100878.46   -90567.459    250.42555    20721    226045.73    25.481949   -20.313144   -17.595905    114.35489    433.73971    23.511524     22.16595    1.1677448    434.90746   -4835.5734 
   35700   -100908.33   -90557.151    251.40117    20721    226035.78   -10.348308   -67.139313   -212.80911     248.9035     433.8754     23.50733    22.161996    1.0999019     434.9753   -4843.8274 
   35800   -100776.35   -90515.502    249.20735    20721    226204.81    50.455493    22.807998    79.245069     49.31341     434.0378    23.511717    22.166132    1.0186979     435.0565   -4884.9467 
   35900   -100882.47   -90570.279    250.45428    20721    226089.11    44.051232    147.41762    41.705352   -56.969276    433.92737    23.508695    22.163283    1.0739158    435.00128   -4835.4372 
[...]
  491300   -93372.977   -80713.145    307.47205    20721    220744.42   -9.6129659   -85.531531    88.665522    -31.97289    421.84095    23.559589    22.211265    7.1171237    428.95808   -22337.026 
  491400   -93518.464   -80726.828     310.6732    20721    221100.68    59.743372    212.62981    32.685449   -66.085145    421.70789    23.582312    22.232687    7.1836528    428.89155   -22317.834 
  491500   -93461.196   -80713.883     309.5967    20721    221191.75   -56.174131   -112.49797    218.92789   -274.95232    422.12676    23.575463     22.22623    6.9742184    429.10098   -22321.631 
  491600   -93419.605   -80771.972    307.17575    20721    221174.62    29.060135   -144.14398    53.404877    177.91951    422.12226    23.574676    22.225488    6.9764676    429.09873    -22270.53 
  491700    -93500.43   -80800.652    308.44221    20721    220899.35   -13.554317   -142.85841    49.587368    52.608091    422.06019    23.561733    22.213286    7.0075036     429.0677   -22253.969 
  491800   -93507.613   -80765.517    309.47001    20721    220883.16   -151.46248   -356.11594    132.57843   -230.84995     421.9377    23.564289    22.215696    7.0687488    429.00645    -22282.02 
  491900   -93415.673   -80770.705    307.11103    20721    221111.34    186.59065    239.00362     147.8005    172.96782    421.76608    23.581254     22.23169    7.1545597    428.92064   -22287.355 
  492000   -93387.879   -80722.267    307.61242    20721    221055.86   -110.03738   -68.313764    161.77647   -423.57485    421.92418    23.573878    22.224735    7.0755076    428.99969   -22325.516 
  492100   -93422.779   -80750.955    307.76328    20721       220986    48.829477    74.793909    238.94829   -167.25377     421.4157    23.584368    22.234625    7.3297493    428.74545   -22310.458 
  492200   -93674.181   -80729.854    314.38161    20721    221191.15   -115.86113   -149.99873    187.78502   -385.36969    421.83018    23.583717    22.234012    7.1225113    428.95269   -22318.653 
  492300   -93444.745   -80753.465    308.23582    20721    221082.38   -20.668239    56.139561    31.825943   -149.97022    421.52039    23.586581    22.236711    7.2774037     428.7978   -22304.704 
  492400   -93492.097   -80729.619    309.96502    20721    221230.73   -16.995388    110.29541   -138.28932    -22.99225    421.72889     23.58866    22.238671    7.1731559    428.90204   -22323.133 
  492500   -93461.915   -80699.369    309.96668    20721    221242.94    7.4018089    168.50978   -96.370687   -49.933669    421.84358    23.586104    22.236262    7.1158109    428.95939   -22354.947 
  492600   -93370.028   -80699.977    307.72025    20721    221230.68   -13.382124    13.918459   -3.1360428    -50.92879    421.64462    23.591014    22.240891    7.2152921    428.85991   -22356.041 
  492700   -93484.943   -80739.335     309.5553    20721     220906.8   -51.270133    241.61677    -85.14464   -310.28253     422.0084    23.563577    22.215024    7.0334002     429.0418   -22330.411 
  492800   -93519.989   -80697.258    311.42842    20721    220832.31   -67.160754    146.94072   -489.17361    140.75063    422.06029    23.558155    22.209912    7.0074543    429.06775   -22374.225 
  492900   -93380.168   -80677.758    308.50615    20721    220940.25    28.510612    15.303879     70.18908  0.038877847    422.09085    23.563059    22.214536    6.9921757    429.08302   -22394.766 
  493000   -93350.202   -80642.162    308.64288    20721    220950.31    -3.889855     121.3151    -107.9711   -25.013568    421.81835    23.571205    22.222216    7.1284248    428.94678   -22432.465 
  493100   -93400.522    -80621.97    310.35542    20721    221011.79   -2.1914983   -197.90738     -60.2663    251.59919    421.39775    23.586246    22.236396     7.338723    428.73648   -22451.168 
  493200   -93434.721   -80659.327    310.27873    20721     220847.7    -30.68273    30.575815   -273.55462    150.93061    421.20768    23.582808    22.233155    7.4337615    428.64144   -22423.662 
  493300   -93272.316   -80623.851    307.19598    20721    220858.24    74.675329   -165.73113    319.86423    69.892884    420.93296    23.591065    22.240939    7.5711212    428.50408   -22461.885 
  493400   -93392.193    -80625.44    310.06886    20721    220914.71    28.205611    374.32927   -45.943643   -243.76879    420.62857    23.602617    22.251829    7.7233153    428.35188   -22459.267 
  493500   -93360.541   -80636.396    309.03402    20721    221208.54   -8.1695767   -37.168611   -259.85708    272.51696    421.25368    23.600777    22.250095    7.4107586    428.66444   -22435.892 
  493600    -93353.34   -80626.045    309.11053    20721    220931.71   -70.076506    -288.2957   -300.68485    378.75103    421.26674     23.58564    22.235824    7.4042291    428.67097   -22455.965 
  493700   -93414.134   -80674.841    309.40194    20721    220728.76   -45.221343   -80.819685    47.916398   -102.76074    421.22282    23.576033    22.226767    7.4261925    428.64901   -22418.773 
  493800   -93551.298   -80653.333    313.25562    20721    221016.84    32.055634    128.71405   -15.082656   -17.464488     421.2437    23.590828    22.240716    7.4157479    428.65945   -22435.537 
  493900   -93549.301     -80671.3    312.77075    20721    220940.42     30.81015   -98.324291    315.25601   -124.50126    421.52918    23.578761    22.229339    7.2730111    428.80219   -22421.254 
  494000   -93476.084    -80658.22    311.31018    20721    221306.15   -87.630353   -147.83509   -238.58485    123.52888    421.59916    23.596309    22.245883    7.2380192    428.83718   -22417.609 
  494100   -93385.561   -80625.885    309.89697    20721    221108.52    4.8715915   -197.47312    19.747986    192.33991    421.46258    23.589593    22.239551    7.3063081    428.76889    -22463.67 
  494200    -93566.58   -80616.679    314.51701    20721    220981.92   -61.185142    222.24842   -143.24512   -262.55873    421.25205    23.588731    22.238738    7.4115759    428.66362   -22476.572 
  494300   -93500.321   -80571.556    314.00367    20721    220897.62   -116.16602   -84.737908    -86.67459   -177.08555    421.56241    23.575548     22.22631    7.2563963     428.8188   -22525.578 
  494400   -93395.836   -80581.887    311.21511    20721    220965.91    30.070338   -176.05142    342.97252   -76.710082    421.65614    23.576571    22.227274    7.2095303    428.86567   -22522.001 
  494500   -93370.349   -80572.261    310.82989    20721    221021.53   -135.21522    145.76923     -498.222   -53.192892    421.93005    23.571883    22.222855    7.0725768    429.00262    -22521.87 
  494600   -93252.218   -80562.262    308.20367    20721    220563.27    71.491049  -0.53480226     122.4245    92.583453    421.31488    23.564618    22.216006    7.3801602    428.69504   -22562.132 
  494700   -93287.783   -80541.399    309.57416    20721    220780.85   -67.391885   -280.41982     100.0746   -21.830438    421.49026    23.571333    22.222336    7.2924676    428.78273    -22570.19 
  494800   -93395.709   -80531.282    312.44108    20721    220546.53   -46.724764   -122.31644   -80.939394    63.081539    421.10571    23.569576    22.220679     7.484745    428.59046   -22594.216 
  494900   -93390.465   -80571.676    311.33266    20721     220669.6    42.684106   -97.710877   -185.14079    410.90399    421.05976    23.577437    22.228091    7.5077182    428.56748   -22552.146 
  495000   -93325.202   -80572.776    309.72088    20721    220638.04    18.925924   -128.40415   -144.84561    330.02753    421.18529    23.572238    22.223189    7.4449554    428.63024   -22553.816 
  495100    -93336.41   -80530.786    311.01292    20721    220581.18    -31.35366   -177.73651    131.69225   -48.016713    421.18168    23.569301    22.220421    7.4467588    428.62844   -22597.029 
  495200   -93253.989   -80533.755    308.93903    20721    220711.77    106.68854    53.449665    133.25479    133.36116    421.31098    23.572659    22.223586    7.3821118    428.69309    -22596.04 
  495300   -93351.058   -80587.901    309.98153    20721    220651.76    40.312606    150.43943   -155.68576    126.18415      421.346    23.568475    22.219641     7.364602     428.7106   -22542.668 
  495400   -93323.574   -80600.618    309.00514    20721     220638.8   -38.229477    2.7185771   -8.5473934   -108.85961    421.12509    23.573963    22.224816    7.4750558    428.60014   -22529.036 
  495500   -93344.371   -80555.421    310.60796    20721    220452.67     38.49241    80.092222    315.73408   -280.34908    421.23637    23.560905    22.212505     7.419417    428.65578   -22586.549 
  495600   -93316.763   -80571.815    309.53925    20721    220332.18   -84.194145   -255.50063    171.00065   -168.08246    421.43564    23.548896    22.201183    7.3197801    428.75542   -22570.945 
  495700   -93219.509   -80576.202    307.07069    20721    220521.92    54.331478    69.094127   -181.32428    275.22459     421.8142    23.548459    22.200772    7.1304998     428.9447   -22566.252 
  495800   -93310.867    -80531.67    310.37108    20721    220870.32   -4.5539127    149.30588   -117.17981   -45.787808    422.18021    23.556836    22.208669    6.9474955     429.1277   -22599.205 
  495900   -93418.155   -80573.107    311.97043    20721    220618.94    73.964902   -148.88525    181.84672    188.93324    421.94455    23.550001    22.202225    7.0653264    429.00987   -22571.532 
  496000   -93319.966   -80580.813    309.39853    20721    220555.42   -135.83565    70.389372   -224.55549   -253.34084     421.3114    23.564296    22.215702    7.3818977     428.6933   -22560.517 
  496100    -93345.39   -80560.028    310.52082    20721     220359.5   -1.2366353   -47.649975   -82.547538    126.48761     421.2456    23.555667    22.207567    7.4147996     428.6604   -22596.447 
  496200    -93414.97   -80544.814    312.58021    20721    220423.11    10.331052   -219.32323    143.45746    106.85893    421.40455    23.554624    22.206583    7.3353274    428.73987   -22611.079 
  496300   -93266.437   -80512.374    309.76064    20721    220344.37    -25.20986   -6.6485725   -145.98413    77.003124    421.13711    23.557893    22.209665    7.4690432    428.60616   -22644.265 
  496400   -93328.455   -80548.694    310.38477    20721     220704.2    21.179428     71.78789     17.51762   -25.767226    421.37441     23.57048    22.221532    7.3503956     428.7248   -22600.604 
  496500   -93233.884   -80484.883     309.6377    20721    220511.04   -26.326267    74.802118    230.46587   -384.24679    421.10939    23.567576    22.218794    7.4829048     428.5923   -22670.835 
  496600   -93176.608   -80482.562      308.303    20721     220032.8     -24.8814    197.02883   -375.16239    103.48936    421.49323    23.531284    22.184579    7.2909867    428.78421   -22691.766 
  496700   -93312.653   -80462.788     312.0874    20721     220302.2   -44.589115    47.039605   -67.050259   -113.75669     421.4792    23.546077    22.198525    7.2979997     428.7772   -22703.958 
  496800   -93216.345   -80489.891     309.0901    20721    220241.77    51.164505    149.06774      155.343   -150.91723    421.61387    23.539087    22.191936    7.2306657    428.84453   -22682.442 
  496900   -93342.146   -80489.832    312.14688    20721    220451.96   -27.656813    19.263087   -112.18629     9.952768    421.94039    23.541203     22.19393    7.0674055    429.00779   -22672.884 
  497000   -93357.056   -80519.366    311.79171    20721    220587.68    56.657186    41.190067    52.375513    76.405977    421.69226    23.555375    22.207291    7.1914707    428.88373   -22643.868 
  497100   -93363.168   -80525.603    311.78869    20721    220718.38   -55.443614    222.02388   -332.42858    -55.92614    421.76185    23.560408    22.212037    7.1566747    428.91853    -22630.43 
  497200   -93378.708    -80587.63    310.65963    20721    220375.21    37.980104   -41.670547   -95.592792    251.20365    421.43809    23.551127    22.203287    7.3185565    428.75664   -22586.979 
  497300   -93284.083    -80532.21    309.70746    20721    220751.99    -112.2158   -88.897481   -309.87399    62.124077    421.61509    23.566303    22.217594    7.2300557    428.84514   -22621.665 
  497400   -93392.368    -80526.77    312.46953    20721    220636.87     73.73978    52.888093    168.54906  -0.21781256    421.80789    23.554772    22.206723    7.1336537    428.94155   -22642.947 
  497500   -93325.118   -80521.895     310.9546    20721    220737.46   -187.09527    -321.7468   -113.77796   -125.76106    421.71094    23.562849    22.214338    7.1821292    428.89307   -22632.361 
  497600   -93307.308   -80522.682    310.50294    20721    220817.23   -2.7471712     134.7273   -85.391332   -57.577484    421.54437    23.571762     22.22274    7.2654127    428.80979   -22642.262 
  497700   -93245.287   -80516.774    309.14011    20721    220782.68     38.35823    186.44419    94.464009   -165.83351    421.35508    23.575211    22.225992    7.3600575    428.71514   -22649.153 
  497800   -93184.794   -80490.062    308.31967    20721    220792.27   -146.82197   -209.85598   -156.66072   -73.949221      421.296    23.577376    22.228034    7.3895996     428.6856   -22670.368 
  497900   -93263.076   -80522.823    309.42524    20721    220540.01    61.219293    174.42084    159.17558   -149.93854    421.34361    23.562573    22.214077    7.3657943    428.70941   -22660.899 
  498000   -93335.187   -80526.734    311.08163    20721    220449.29    -8.358488   -132.93075    334.23243   -226.37715     420.8984    23.570182    22.221251    7.5884015     428.4868   -22658.272 
  498100   -93411.578   -80487.056    313.90062    20721    220658.69     100.9395    169.67408    3.7326901    129.41174    420.84283     23.58293     22.23327    7.6161826    428.45902   -22697.508 
  498200   -93319.812   -80527.601    310.68718    20721    220754.39    123.68588    107.24974   -71.136219    334.94412    421.50184    23.569597    22.220699    7.2866813    428.78852   -22657.712 
  498300   -93314.601   -80523.868    310.65126    20721    220545.09    9.9449794    -110.5928    -80.74624    221.17398    421.27964    23.564633    22.216019    7.3977822    428.67742   -22664.368 
  498400   -93396.014   -80540.595     312.2223    20721    220612.07   -85.012072     47.43321   -27.265199   -275.20423    421.50834    23.561816    22.213364    7.2834296    428.79177   -22643.894 
  498500   -93307.512   -80515.591    310.68011    20721    220299.04   -5.4956098   -146.90053    267.73469   -137.32098    420.99419    23.559467    22.211149    7.5405044     428.5347    -22685.81 
  498600   -93350.154   -80527.615    311.42375    20721    220591.34   -62.415844   -28.503438   -329.16492    170.42082    421.20362     23.56923    22.220353    7.4357901    428.63941   -22659.789 
  498700    -93245.72   -80486.454      309.887    20721    220653.13    64.189605    327.56136   -258.06502    123.07247    421.75435    23.557135    22.208951    7.1604226    428.91478   -22706.087 
  498800   -93224.993   -80462.669     309.9613    20721     220767.9   -66.971182   -101.68751    30.254262    -129.4803    421.77478     23.56269    22.214188    7.1502109    428.92499   -22723.074 
  498900   -93236.024   -80451.584    310.49841    20721    220836.84    12.459215   -352.74818    144.12054    246.00529    421.52854    23.573251    22.224144    7.2733297    428.80187    -22736.93 
  499000   -93322.389   -80445.215    312.75066    20721    220733.62    84.562563    21.492379   -66.448957    298.64427    421.15651    23.578149    22.228762    7.4593454    428.61585   -22754.693 
  499100   -93185.134    -80410.75    310.25419    20721    220887.69    4.5141484   -59.576847   -314.15142    387.27071    421.25307    23.583673     22.23397    7.4110667    428.66413   -22778.324 
  499200   -93282.997   -80432.673    312.09856    20721    220813.24    24.511914    149.40283   -255.87821    180.01112    421.20573    23.581023    22.231471    7.4347358    428.64046   -22766.742 
  499300   -93372.112   -80392.417    315.24061    20721    220797.64   -247.86797   -232.29118   -315.25491   -196.05783    421.40899    23.574502    22.225324    7.3331036     428.7421    -22797.18 
  499400   -93156.946   -80436.813    308.93658    20721    220502.93   -29.458642   -178.60447    54.912912    35.315632    421.26078    23.562908    22.214393    7.4072083    428.66799   -22774.062 
  499500   -93263.376   -80461.161    310.93014    20721    220961.69    89.784035   -1.1550159    173.24615    97.260974    421.30298    23.586225    22.236376    7.3861076    428.68909   -22738.904 
  499600    -93338.59   -80473.389    312.45989    20721     220809.3    24.953192    221.45219   -206.64291    60.050295    421.24312    23.579766    22.230286    7.4160423    428.65916   -22732.333 
  499700   -93292.905   -80478.531    311.22545    20721    220740.79    62.910268    153.59885    -34.98519    70.117148    421.16824    23.578203    22.228813      7.45348    428.62172   -22732.724 
  499800     -93139.5    -80494.95    307.10089    20721    220966.03    139.06527    392.69365   -54.216025     78.71819    421.76771    23.573459     22.22434    7.1537439    428.92146   -22709.593 
  499900   -93138.815   -80444.705    308.30457    20721    220697.08    76.844971    73.754855   -126.81804    283.59809    421.57698    23.564437    22.215835    7.2491096    428.82609   -22770.363 
  500000   -93294.422   -80462.939    311.64095    20721    220610.36    4.4138066   -371.80218    28.959948    356.08365    421.72393    23.555701    22.207599    7.1756353    428.89956   -22756.699 
Loop time of 52630.2 on 32 procs for 500000 steps with 20721 atoms

Performance: 1.642 ns/day, 14.619 hours/ns, 9.500 timesteps/s
97.3% CPU use with 32 MPI tasks x no OpenMP threads

MPI task timing breakdown:
Section |  min time  |  avg time  |  max time  |%varavg| %total
---------------------------------------------------------------
Pair    | 6438.5     | 9213.2     | 13056      |2504.1 | 17.51
Bond    | 0.38569    | 0.47821    | 0.65057    |   8.6 |  0.00
Kspace  | 8594.4     | 12454      | 15246      |2167.7 | 23.66
Neigh   | 8430.4     | 10484      | 12261      |1408.1 | 19.92
Comm    | 337.91     | 3794.2     | 7604       |4305.4 |  7.21
Output  | 5.7125     | 46.823     | 75.071     | 365.2 |  0.09
Modify  | 13065      | 16596      | 21735      |2420.9 | 31.53
Other   |            | 41.22      |            |       |  0.08

Nlocal:    647.531 ave 709 max 593 min
Histogram: 2 3 3 9 1 0 7 4 2 1
Nghost:    7391.34 ave 7858 max 6837 min
Histogram: 2 2 3 4 4 3 1 6 4 3
Neighs:    238667 ave 279246 max 209038 min
Histogram: 2 6 9 1 0 3 4 2 4 1
FullNghs:  477331 ave 561553 max 418628 min
Histogram: 3 6 9 0 0 4 3 4 2 1

Total # of neighbors = 15274582
Ave neighs/atom = 737.155
Ave special neighs/atom = 2
Neighbor list builds = 500000
Dangerous builds not checked
write_data production.R1
PPPM initialization ...
  extracting TIP4P info from pair style
WARNING: Using 12-bit tables for long-range coulomb (../kspace.cpp:316)
  G vector (1/distance) = 0.345967
  grid = 400 48 48
  stencil order = 5
  estimated absolute RMS force accuracy = 0.000400545
  estimated relative force accuracy = 1.20623e-06
  using double precision FFTs
  3d grid and FFT values/proc = 67260 38400
write_restart restartproduction.R1
PPPM initialization ...
  extracting TIP4P info from pair style
WARNING: Using 12-bit tables for long-range coulomb (../kspace.cpp:316)
  G vector (1/distance) = 0.345967
  grid = 400 48 48
  stencil order = 5
  estimated absolute RMS force accuracy = 0.000400545
  estimated relative force accuracy = 1.20623e-06
  using double precision FFTs
  3d grid and FFT values/proc = 67260 38400
Total wall time: 14:37:10
