LAMMPS (30 Jul 2016)
# Sets up LAMMPS simulation for transient melting of ice: TIP4P/Ice
# Ensure cold thermostats do not move
# Thinbox: 16x1x1
# Defects
# Order param l=2

#### setting MD parameters ####
units real
boundary p p p
atom_style full

# read ice box in restart file
### read the equilibrated NPT restart file

read_restart restart.state
  orthogonal box = (0.316997 0.0171056 0.0161266) to (435.758 23.5141 22.1684)
  32 by 1 by 1 MPI processor grid
  20736 atoms
  13824 bonds
  6912 angles
  2 = max # of 1-2 neighbors
  1 = max # of 1-3 neighbors
  1 = max # of 1-4 neighbors
  2 = max # of special neighbors


#### force field definition ####
pair_style      lj/cut/tip4p/long 2 1 1 1 0.1577 10.0
pair_modify	tail yes

kspace_style	pppm/tip4p 1.0e-6

bond_style	harmonic
angle_style	harmonic
dihedral_style	none
improper_style	none

bond_coeff	1 450.0 0.9572
angle_coeff	1 55.0 104.52


# reset pair coeff
pair_coeff	* * 0.0 0.0

#OO
pair_coeff	2 2 0.21085 3.1668
#OH
pair_coeff	* 1 0.0000 0.0000

neighbor        2.0 bin
neigh_modify    every 1 delay 1 check no

timestep	2.0
fix		constraints all shake 0.000001 20 0 b 1 a 1
  0 = # of size 2 clusters
  0 = # of size 3 clusters
  0 = # of size 4 clusters
  6912 = # of frozen angles

group water type 1 2
20736 atoms in group water

#*********** SIMULATION PARAMETER TO ADJUST ****************
#Box dimensions
variable lx equal lx
variable ly equal ly
variable lz equal lz

### Temperature of the hot and cold regions ####
variable thi equal 375
variable tlo equal 215
variable runpressure equal 0.986923


# Configuration equilibrated in density and temperature

# Define dx here

variable lx equal lx
variable ly equal ly
variable lz equal lz

variable xlo equal xlo
variable xhi equal xhi

variable boxcentre equal ${xlo}+(${xhi}-${xlo})/2
variable boxcentre equal 0.316997012039753+(${xhi}-${xlo})/2
variable boxcentre equal 0.316997012039753+(435.758202987957-${xlo})/2
variable boxcentre equal 0.316997012039753+(435.758202987957-0.316997012039753)/2

variable dx equal 2.0

#### ADD IN DEFECTS AT THE CENTRE OF THE HOT THERMOSTAT #####
variable y1 equal ${ly}/2.0
variable y1 equal 23.4969888360099/2.0
variable z1 equal ${lz}/2.0
variable z1 equal 22.152246754626/2.0

region kill1 sphere ${boxcentre} ${y1} ${z1} 3
region kill1 sphere 218.037599999998 ${y1} ${z1} 3
region kill1 sphere 218.037599999998 11.748494418005 ${z1} 3
region kill1 sphere 218.037599999998 11.748494418005 11.076123377313 3
delete_atoms region kill1 compress no bond yes mol yes
Deleted 12 atoms, new total = 20724
Deleted 8 bonds, new total = 13816
Deleted 4 angles, new total = 6908
############


variable thip equal ${thi}*2.0/3.0
variable thip equal 375*2.0/3.0
variable tlop equal ${tlo}*2.0/3.0
variable tlop equal 215*2.0/3.0
variable hbl equal ${boxcentre}-${dx}
variable hbl equal 218.037599999998-${dx}
variable hbl equal 218.037599999998-2
variable hbh equal ${boxcentre}+${dx}
variable hbh equal 218.037599999998+${dx}
variable hbh equal 218.037599999998+2

#***************************************************
## EQUILIBRATION PERIOD - to reach the steady state ###
#run 0

#reset the timestep to start your production run
reset_timestep 0

# define a group to perform averages
#group s1 type 1
###*** SYSTEM THERMOSTATTING: HOT and COLD regions ***###

fix NVE all nve
fix PRESS all press/berendsen aniso ${runpressure} ${runpressure} 500000 couple yz
fix PRESS all press/berendsen aniso 0.986923 ${runpressure} 500000 couple yz
fix PRESS all press/berendsen aniso 0.986923 0.986923 500000 couple yz


### Apply THERMOSTATS ###

#set up the "hot region" in the middle of the box
region hot block ${hbl} ${hbh} 0 ${ly} 0 ${lz} units box
region hot block 216.037599999998 ${hbh} 0 ${ly} 0 ${lz} units box
region hot block 216.037599999998 220.037599999998 0 ${ly} 0 ${lz} units box
region hot block 216.037599999998 220.037599999998 0 23.4969888360099 0 ${lz} units box
region hot block 216.037599999998 220.037599999998 0 23.4969888360099 0 22.152246754626 units box


#set up the "cold region" at the left end of the box
#region cold block ${cbl} ${cbh} 0 ${ly} 0 ${lz} units box

#set up the "cold region" at the right end of the box
#region cold2 block ${h2bl} ${xhi} 0 ${ly} 0 ${lz} units box


#Cold regions  unification
#region cold union 2 cold1 cold2 units box

#Create group of cold molecules
####group cool_ice region cold
####group cool_ice include molecule

####compute cold_temp cool_ice temp
####fix cold_rescale water temp/rescale 1 ${tlo} ${tlo} 0.0001 1.0
####fix_modify cold_rescale temp cold_temp

#this calculates the temperature using only the atoms in the "hot region"
#compute hot_temp all temp/region hot

# calculate the temperature using only WATER in the "hot region"
compute hot_temp water temp/region hot

#this calculates the temperature using only WATER in the "cold region"
#compute cold_temp water temp/region cold


#set up a basic velocity rescale for the hot region WATER with thip
fix hot_rescale water temp/rescale 1 ${thip} ${thip} 1.0 1.0
fix hot_rescale water temp/rescale 1 250 ${thip} 1.0 1.0
fix hot_rescale water temp/rescale 1 250 250 1.0 1.0
#change the thermostat to only act on the "hot region"
#this is done by passing it the "hot temp" compute that we defined above
fix_modify hot_rescale temp hot_temp

#set up a basic velocity rescale for the cold region
#fix cold_rescale water temp/rescale 1 ${tlop} ${tlop} 1.0 1.0
#change the thermostat to only act on the "cold region"
#this is done by passing it the "cold temp" compute that we defined above
#fix_modify cold_rescale temp cold_temp

### Ensure MOMENTUM CONSERVATION ###

#ensure that linear momentum is conserved despite the "thermostatting" by velocity rescaling
fix cons_mom all momentum 1 linear 1 1 1


thermo 100
thermo_style custom step pe etotal temp atoms vol press pxx pyy pzz lx ly lz xlo xhi  f_hot_rescale

group ox type 2
6908 atoms in group ox
group hy type 1
13816 atoms in group hy
compute KE all ke/atom
variable TEMP atom c_KE*4186.8/(1.3806488*6.02214129)

compute cc1 all chunk/atom bin/1d x center 2 units box
#fix TPROFILE all ave/chunk 1 500 500 cc1 v_TEMP density/number file temp.dat
fix TPROFILEox ox ave/chunk 1 500 500 cc1 v_TEMP density/number file temp-ox.dat
fix TPROFILEhy hy ave/chunk 1 500 500 cc1 v_TEMP density/number file temp-hy.dat

compute orderparam ox orientorder/atom degrees 1 2 nnn 4 cutoff 3.5
compute cc2 ox chunk/atom bin/1d x center 2 units box
#fix ORDERPARAM all ave/chunk 1 500 500 cc2 c_orderparam[1] file order-param.dat
fix ORDERPARAM all ave/chunk 1 500 500 cc2 c_orderparam[1] file order-param.dat

restart 50000 config.restart

run 500000
PPPM initialization ...
  extracting TIP4P info from pair style
WARNING: Using 12-bit tables for long-range coulomb (../kspace.cpp:316)
  G vector (1/distance) = 0.345568
  grid = 405 48 48
  stencil order = 5
  estimated absolute RMS force accuracy = 0.00040658
  estimated relative force accuracy = 1.2244e-06
  using double precision FFTs
  3d grid and FFT values/proc = 67260 38880
Neighbor list info ...
  2 neighbor list requests
  update every 1 steps, delay 1 steps, check no
  max neighbors/atom: 2000, page size: 100000
  master list distance cutoff = 12.3154
  ghost atom cutoff = 12.3154
  binsize = 6.1577 -> bins = 71 4 4
Memory usage per processor = 12.7931 Mbytes
Step PotEng TotEng Temp Atoms Volume Press Pxx Pyy Pzz Lx Ly Lz Xlo Xhi hot_resc 
       0    -103777.5   -94867.496    216.36778    20724    226651.98   -137.87847    35.903902   -218.70077   -230.83855    435.44121    23.496989    22.152247   0.31699701     435.7582            0 
     100   -103599.17   -94605.734    218.39379    20724    226297.02   -3.4387872   -107.08633    15.476854    81.293114    435.22502    23.484413    22.140391   0.42508806    435.65011    -274.7739 
     200   -103616.53   -94572.167    219.63054    20724    226493.47   -71.131948    12.337462    19.198049   -244.93136    435.14106     23.49687    22.152135   0.46707027    435.60813   -301.27574 
     300   -103513.25   -94560.838     217.3977    20724    226361.63    10.694569   -81.446146    63.011243     50.51861    435.16153    23.489478    22.145166   0.45683368    435.61837   -318.33219 
     400   -103587.78   -94479.796    221.17551    20724    226615.48   -11.168754   -10.769044    99.140257   -121.87748    435.14424    23.503113     22.15802   0.46547948    435.60972   -393.44547 
     500   -103515.36   -94463.784    219.80562    20724    226482.72    66.804131    82.461066    137.91915   -19.967828    435.13852    23.496381    22.151674   0.46833915    435.60686   -416.91788 
     600   -103568.96   -94420.571    222.15665    20724    226455.53   -24.469497    84.893235   -46.069191   -112.23254    435.35057    23.489248    22.144949   0.36231733    435.71288   -457.70773 
     700   -103551.91   -94389.674    222.49295    20724    226480.77    -80.59529    10.763498   -254.36384    1.8144676    435.17409     23.49532    22.150674   0.45055588    435.62464   -485.68196 
     800   -103512.81   -94342.146     222.6976    20724    226612.91    11.739832   -15.315896   -227.16731     277.7027    435.19391    23.501638     22.15663    0.4406427    435.63456   -534.44952 
     900   -103393.84    -94287.17    221.14364    20724    226528.85   -9.4693787   -157.69453   -69.908202    199.19459    435.32456    23.493753    22.149196   0.37532052    435.69988   -590.84321 
    1000   -103411.69   -94235.989    222.82004    20724    226655.71   -8.4828522   -167.39609    61.724675    80.222857    435.31737    23.500524    22.155579   0.37891314    435.69629   -639.67059 
    1100   -103410.33   -94205.704     223.5224    20724    226530.88   -54.048616   -94.603917   -147.84493    80.302998    435.34705    23.493251    22.148723   0.36407607    435.71112   -673.68226 
    1200   -103318.29   -94220.765    220.92149    20724    226565.71    43.236351    201.82478   -152.43136    80.315635    435.28661    23.496688    22.151963   0.39429645     435.6809   -660.23969 
    1300   -103319.81    -94167.93    222.24152    20724    226528.02     84.25775    304.93512   -48.849136   -3.3127295    435.29544    23.494495    22.149896   0.38987857    435.68532   -718.82425 
    1400   -103289.56   -94167.231    221.52374    20724    226567.95   -5.3089334   -175.02624   -29.719218    188.81866    435.37801    23.494338    22.149747   0.34859257    435.72661    -713.3473 
    1500   -103364.87   -94146.549    223.85504    20724    226548.49    3.0292384   -92.234669    144.28688   -42.964497     435.2762    23.496076    22.151386   0.39949758     435.6757   -738.38635 
    1600   -103394.96   -94161.522    224.22191    20724    226563.02   -13.806221  -0.77881598   -3.7504857    -36.88936    435.21949    23.498361     22.15354   0.42785701    435.64734   -721.99433 
    1700   -103323.23   -94082.598     224.3966    20724    226739.34    43.348627    182.03793    150.41552   -202.40757    435.47669    23.500559    22.155613   0.29925522    435.77594   -799.66631 
    1800   -103305.73   -94087.471    223.85348    20724    226668.83    25.016135   -22.093361    80.138198    17.003567    435.22232    23.503771     22.15864   0.42644159    435.64876   -796.45373 
    1900   -103173.65   -94023.279    222.20492    20724    226705.59     24.09695    223.49608    40.811162   -192.01639    435.50905    23.497937    22.153141   0.28307555    435.79212   -861.08775 
    2000   -103334.99   -94020.475    226.19097    20724    226649.75   -22.570544   -34.147861    90.384148   -123.94792    435.48198    23.495773    22.151101    0.2966109    435.77859   -864.83451 
    2100   -103133.66   -93917.194    223.80976    20724    226710.52   -12.051042    22.071387    190.26915   -248.49367    435.49771    23.498499     22.15367   0.28874609    435.78645   -966.75619 
    2200   -103201.18   -93923.094    225.30613    20724    226510.11     60.76839    120.93461   -90.508975    151.87953    435.16748     23.49702    22.152276   0.45385811    435.62134   -971.99302 
    2300   -103161.38   -93871.628    225.58953    20724    226692.63    27.159979   -109.44668  -0.51040648    191.43703    435.30492    23.502774    22.157701    0.3851402    435.69006   -1016.0542 
    2400   -103213.11   -93850.617     227.3559    20724     226773.8    -49.02055     17.85633    -91.27155    -73.64643    435.67433    23.497014     22.15227   0.20043531    435.87476     -1033.09 
    2500   -103174.21    -93847.77    226.48051    20724    226634.39   -41.280931   -218.82306   -141.32834    236.30861    435.41831    23.496695     22.15197   0.32844389    435.74676   -1041.6196 
    2600   -103162.54   -93846.282    226.23322    20724    226530.62   -67.293734    63.674022   -14.512027    -251.0432    435.30626    23.494338    22.149748   0.38446994    435.69073   -1044.8898 
    2700   -103146.81   -93802.485    226.91468    20724    226716.96   -29.290115   -56.854642    94.501978   -125.51768    435.46747    23.499648    22.154754   0.30386563    435.77133   -1085.8864 
    2800   -103165.83    -93764.81    228.29158    20724    226705.49    21.811355    163.90036   -61.133718   -37.332582    435.31432    23.503187     22.15809     0.380441    435.69476   -1128.9049 
    2900   -103125.11   -93766.822    227.25385    20724    226714.54   -15.581229   -84.067532    78.755664    -41.43182     435.3174    23.503573    22.158454   0.37890098     435.6963   -1125.2978 
    3000   -103037.91   -93745.662    225.65002    20724    226638.35    48.700326    162.83256    -80.13671    63.405128    435.36053     23.49846    22.153633   0.35733495    435.71787   -1151.1531 
    3100   -103053.53   -93717.819     226.7056    20724    226670.59   -11.491917   -39.313687   -201.40431    206.24225    435.35049    23.500402    22.155464   0.36235489    435.71285    -1175.608 
    3200   -103061.94   -93690.914    227.56311    20724    226618.67   -77.813119   -99.567091   -56.851866   -77.020399    435.43086    23.495541    22.150882   0.32216915    435.75303   -1202.1866 
    3300   -103079.31   -93650.292    228.97138    20724    226801.23   -14.232252   -13.589821    65.761781   -94.868716    435.51228    23.502806    22.157731   0.28146044    435.79374   -1242.6992 
    3400   -102984.42   -93606.987    227.71886    20724    226720.13    22.253976   -77.780687    108.20829    36.334324    435.25219    23.505623    22.160387   0.41150304     435.6637   -1287.7318 
    3500   -102977.53   -93574.329    228.34439    20724    226739.55    19.794192    231.00184   -60.922954   -110.69631    435.54998    23.498593    22.153759   0.26261049    435.81259   -1321.9768 
    3600   -103099.81   -93586.771    231.01169    20724    226827.39    -15.28503     66.25864    183.44599   -295.55972    435.70041    23.499086    22.154224   0.18739619     435.8878   -1310.2552 
    3700   -102919.45     -93528.5    228.04699    20724    226688.69  -0.40488631   -7.5863709   -104.68978    111.06149    435.61452    23.494217    22.149633   0.23034201    435.84486   -1370.2964 
    3800   -102962.67   -93517.203    229.37084    20724     226644.3   -25.197347   -118.71427   -190.52911    233.65135    435.46428    23.495968    22.151285   0.30546006    435.76974   -1383.0543 
    3900   -102940.17   -93499.433    229.25611    20724    226772.35   -84.743615   -114.28928    -10.49985   -129.44171    435.67675    23.496873    22.152138   0.19922424    435.87598   -1395.1153 
    4000   -102913.99   -93496.717    228.68623    20724    226804.79    22.543958    31.182494   -5.2655368    41.714917    435.49353    23.503496    22.158382   0.29083337    435.78437    -1402.703 
    4100   -102973.21   -93502.661    229.97989    20724    226766.75   0.99263114    7.9547678   -61.532785     56.55591    435.67468    23.496639    22.151917   0.20025806    435.87494   -1398.1588 
    4200   -102812.58   -93471.086    226.84605    20724    226537.42    52.703953    46.534527   -50.774937    162.35227    435.44065    23.491065    22.146662   0.31727532    435.75792   -1437.7307 
    4300   -102860.87   -93440.115    228.77087    20724    226803.09    -29.00071     -78.5451    5.2080185   -13.665047     435.3247    23.507965    22.162595   0.37525125    435.69995   -1459.6943 
    4400   -102858.28   -93434.436    228.84573    20724    226585.19    98.206636    42.381671    235.45307    16.785172    435.26713    23.498224    22.153411   0.40403574    435.67116   -1479.5355 
    4500   -102934.66   -93386.388    231.86734    20724    226943.12   -92.161625   -187.57524    15.268931   -104.17857    435.46263    23.511497    22.165924   0.30628337    435.76892    -1510.382 
    4600   -102822.09   -93418.489    228.35415    20724    226666.61    30.874555    110.02984   -9.7226961   -7.6834741    435.25883    23.502669    22.157602   0.40818288    435.66702   -1491.5753 
    4700   -102800.68   -93407.428    228.10298    20724    226729.35    77.606567   -54.391665    212.02739    75.183974    435.55166    23.498019    22.153218   0.26177222    435.81343   -1503.7835 
    4800   -102814.75   -93403.204    228.54723    20724    226810.97    18.031406    59.157309    -23.24717    18.184078      435.669    23.499083    22.154221   0.20309914     435.8721   -1505.0749 
    4900   -102736.71   -93335.155    228.30442    20724     226730.9    11.554237   0.34219701    29.273422    5.0470916    435.53067    23.498666    22.153828   0.27226292    435.80294   -1574.1582 
    5000   -102850.35   -93340.994    230.92228    20724    226755.42    48.960544    119.68881    296.29619   -269.10337    435.23265     23.50798    22.162609   0.42127598    435.65392   -1572.3481 
    5100   -102830.69   -93332.276    230.65656    20724    226576.61   -48.324226    32.521702   -231.68511    54.190731    435.43818    23.493163     22.14864   0.31851049    435.75669   -1579.2126 
    5200   -102786.43   -93364.966    228.78793    20724    226527.01    100.60507    163.32197     39.61054     98.88269    435.08089    23.500235    22.155307   0.49715535    435.57804   -1557.1484 
    5300   -102856.08   -93325.037    231.44907    20724    226643.71   -46.976901   -58.431996   -352.62493    270.12622    435.31986    23.499835     22.15493   0.37767214    435.69753   -1589.7851 
    5400   -102799.36   -93373.897    228.88515    20724    226559.96    19.649351   -19.091473   -43.988572     122.0281     435.2696    23.496849    22.152115   0.40279787     435.6724   -1547.2138 
    5500   -102891.98   -93367.266    231.29518    20724    226542.88   -12.460713    85.221836    167.35752   -289.96149    435.40408    23.492335    22.147859   0.33555784    435.73964   -1556.0479 
    5600    -102933.4   -93332.099      233.155    20724    226622.74   -9.7612936   -148.01103    -83.22772    201.95487     435.3887     23.49689    22.152154   0.34325013    435.73195   -1588.8548 
    5700   -102836.31   -93294.195    231.71779    20724    226733.86   -11.470352     93.07586   -53.931593   -73.555323     435.3215    23.504464    22.159294   0.37684869    435.69835   -1623.0638 
    5800   -102923.54   -93273.791    234.33167    20724    226551.32   -128.70766   -229.82183   -1.6659915   -154.63516    435.35769    23.494023    22.149451   0.35875372    435.71645   -1645.8079 
    5900   -102781.32   -93242.597     231.6355    20724     226637.4   -3.7644369    -145.3117   -26.619326    160.63772    435.34842    23.498737    22.153895   0.36339173    435.71181   -1681.3403 
    6000   -102755.47   -93220.345     231.5481    20724    226680.01    -29.33531    106.98609    156.41758    -351.4096    435.32559    23.501562    22.156558   0.37480265     435.7004   -1700.5965 
    6100   -102751.59   -93256.795     230.5688    20724    226542.23    86.086767    81.232879    145.29498    31.732441    435.39938    23.492428    22.147947   0.33791165    435.73729   -1676.0699 
    6200   -102854.85   -93215.665    234.07496    20724    226843.27    4.6751121   -9.0012945   -43.515054    66.541685     435.3126    23.510374    22.164866   0.38129898     435.6939   -1705.0923 
    6300   -102750.44   -93218.819    231.46294    20724    226428.63    21.502461    112.08778    119.84478   -167.42518    435.20441    23.491797    22.147352   0.43539566     435.6398   -1715.2385 
    6400   -102710.73    -93198.45    230.99325    20724    226613.45  -0.55271644   -141.05643    64.656975     74.74131    435.43155    23.495252    22.150609    0.3218269    435.75337   -1729.8605 
    6500   -102755.74   -93173.159    232.70051    20724    226631.41    6.7082023   -70.878868   -175.88748    266.89096    435.16604     23.50335    22.158244   0.45458138    435.62062    -1757.999 
    6600   -102785.89   -93165.631     233.6155    20724     226537.3   -17.234388    6.6104275   -58.814698   0.50110834    435.13644    23.499269    22.154396   0.46938027    435.60582   -1767.7486 
    6700      -102719   -93197.256    231.22311    20724    226539.61   -9.9383459    4.2639084   -198.83814    164.75919    435.18851    23.497982    22.153184   0.44334337    435.63186   -1737.5877 
    6800   -102723.82   -93169.344    232.01811    20724    226439.03   -94.902127   -116.43545   0.50307857   -168.77401    435.04229    23.496713    22.151987   0.51645713    435.55874   -1764.2874 
    6900   -102740.95   -93186.733    232.01168    20724    226511.18   -38.760612   -67.657092   -4.8744358    -43.75031    435.17749    23.496806    22.152074   0.44885461    435.62635   -1748.7221 
    7000   -102592.27   -93161.235    229.02043    20724    226463.94    73.167625    98.683361    -10.48981    131.30932    434.99955     23.49916    22.154294   0.53782531    435.53737   -1781.4977 
    7100    -102675.9   -93161.563    231.04316    20724    226386.05   -27.839596    28.677093   -94.631452    -17.56443    435.08233    23.492883    22.148376   0.49643546    435.57876   -1778.9276 
    7200   -102739.68    -93151.34    232.84039    20724    226426.01   -43.445411   -60.250726    36.203368   -106.28887    435.01622    23.496742    22.152014   0.52948799    435.54571   -1789.2858 
    7300    -102773.9   -93083.332    235.32272    20724    226480.62   -35.445491    -58.13778   -81.077413    32.878721    434.98542    23.500407     22.15547    0.5448915    435.53031   -1857.1405 
    7400   -102628.21   -93056.085    232.44661    20724    226607.03    21.601036   -47.986036   -78.153298    190.94244    435.02761    23.505824    22.160577   0.52379269    435.55141   -1882.4099 
    7500   -102623.64   -93069.118    232.01915    20724    226491.66    77.074314    93.362504   -125.91044    263.77088    435.03693    23.499588    22.154698   0.51913375    435.55607   -1877.2994 
    7600   -102625.15   -93040.179    232.75842    20724     226676.7   -57.320413   -248.59678   -72.682298    149.31783    435.09338    23.507661    22.162308   0.49091216    435.58429   -1895.3176 
    7700   -102575.91   -93004.713    232.42409    20724    226508.67    96.391497    7.1713751    268.35156    13.651553    435.09818    23.498817     22.15397   0.48850953    435.58669   -1943.8105 
    7800   -102636.72   -93018.579    233.56405    20724    226475.58   -23.969362    116.07633    33.646218   -221.63063    434.86494    23.503401    22.158292   0.60513194    435.47007   -1925.2089 
    7900   -102563.63    -92967.88    233.02035    20724    226426.73   -60.870091   -127.31039    131.56333   -186.86321    434.99164    23.497443    22.152675   0.54177906    435.53342   -1977.6833 
    8000   -102522.99   -92973.612    231.89428    20724    226410.17     103.1551    120.22719   -108.57162    297.80974    435.14587     23.49242    22.147939   0.46466641    435.61053   -1981.8739 
    8100   -102600.73   -93001.522    233.10429    20724    226621.93    14.025424   -86.989695    100.35529     28.71068    435.32524     23.49856    22.153728   0.37497781    435.70022   -1944.8745 
    8200   -102579.99   -93000.818    232.61768    20724    226657.24    72.998358    24.409672     216.1065     -21.5211    435.30036    23.501063    22.156087   0.38742053    435.68778   -1949.3111 
    8300   -102653.22   -92990.219    234.65346    20724    226740.25    6.6528002     206.6038    278.27488   -464.92028     435.1739     23.50878    22.163364   0.45064765    435.62455   -1955.5812 
    8400   -102508.78   -92958.184    231.92372    20724    226476.44    66.961718    161.10353   -109.73991    149.52154    435.24092    23.493292    22.148761   0.41713991    435.65806   -1997.5797 
    8500   -102615.36   -92938.111    234.99946    20724     226829.2   -3.3677172    197.81699   -170.64045   -37.279685    435.34258    23.508836    22.163415   0.36630899    435.70889   -2007.5904 
    8600   -102551.95   -92947.316      233.236    20724    226516.07    40.528998    40.434237   -59.839133    140.99189    435.18472    23.496864    22.152129   0.44524195    435.62996   -2009.9185 
    8700   -102564.77   -92902.884    234.62626    20724    226724.02   -15.936636   -222.51667    140.92695    33.779812    435.41652    23.501389    22.156395    0.3293377    435.74586   -2046.0402 
    8800   -102558.27   -92868.742    235.29763    20724    226692.67   -4.5535761    35.305423    85.099407   -134.06556    435.14816    23.507009    22.161693   0.46351877    435.61168   -2083.4875 
    8900   -102527.35   -92882.797    234.20531    20724    226634.39   -10.090833     12.23902    56.280285   -98.791803    435.35803    23.498321    22.153503   0.35858283    435.71662   -2072.4347 
    9000   -102546.21   -92849.948     235.4612    20724    226830.06   -28.406042     43.41827   -178.81729    50.180893     435.7295    23.498441    22.153615   0.17285081    435.90235   -2099.0627 
    9100    -102580.3   -92861.093    236.01818    20724    226667.48   -78.968241   -257.26116    45.019817    -24.66338    435.28579    23.501987    22.156959   0.39470573    435.68049   -2090.5065 
    9200   -102534.29   -92840.577    235.39911    20724    226753.85   -62.136622    116.22449    -135.5598   -167.07456    435.29166    23.506305     22.16103   0.39177122    435.68343   -2111.5479 
    9300    -102524.6   -92850.559    234.92148    20724    226761.64    14.733631    164.12212   -178.76401    58.842782     435.2536    23.507737     22.16238   0.41079866     435.6644   -2107.2391 
    9400   -102563.86    -92819.59    236.62679    20724    226650.84   -104.56483    -134.1447   -36.968507   -142.58129    435.22224     23.50284    22.157763   0.42648155    435.64872   -2137.1292 
    9500   -102525.67   -92878.591    234.26664    20724    226602.15    -49.42997    75.152242   -86.895903   -136.54625    435.43917    23.494461    22.149864   0.31801398    435.75719    -2083.202 
    9600   -102489.49   -92793.439    235.45604    20724    226566.48    33.004805    34.743138    39.208623    25.062655    435.00704    23.504277    22.159118   0.53408025    435.54112   -2175.1908 
    9700   -102428.31   -92821.647    233.28541    20724    226456.18   -53.863961    65.301201    90.601266   -317.49435    434.80194    23.504097    22.158948   0.63663222    435.43857   -2144.9831 
    9800   -102613.35   -92821.388     237.7851    20724    226579.16    16.226562    3.6501775   -20.837537    65.867046    435.09042    23.502683    22.157615    0.4923878    435.58281   -2147.3223 
    9900   -102470.44    -92785.16    235.19446    20724    226623.42   -14.437901    -92.78321    162.02946   -112.55996    435.25653    23.500492    22.155549   0.40933281    435.66587   -2180.9449 
   10000   -102553.02   -92792.324    237.02575    20724    226523.25   -10.164181   -60.967075   -194.85914    225.33367    434.93454    23.503993     22.15885   0.57032905    435.50487   -2179.0743 
   10100   -102423.17   -92726.682    235.46651    20724    226617.07   -139.50932   -225.20484   -163.28672   -30.036388     435.0951    23.504522    22.159349   0.49004928    435.58515   -2236.3196 
   10200   -102489.38   -92731.802    236.95005    20724    226723.97    33.279321    50.897781    287.99436   -239.05418    435.24079     23.50613    22.160865   0.41720467      435.658   -2237.7078 
   10300   -102383.33    -92695.71    235.25115    20724    226488.49     60.36577   -34.372293    146.05048    69.419124     435.0369    23.499425    22.154544   0.51914997    435.55605   -2283.3832 
   10400   -102401.59   -92709.223    235.36651    20724    226455.87   -104.39481   -300.42771    44.095514   -56.852233    434.91957    23.500902    22.155936   0.57781548    435.49738   -2260.9348 
   10500   -102426.61     -92724.8    235.59579    20724    226569.83    -39.34477     13.66704   -188.77754    57.076186    434.66912    23.513586    22.167894   0.70303822    435.37216   -2248.0484 
   10600   -102446.59   -92728.546    235.99005    20724    226333.03   -25.379532    156.17232    19.958334   -252.26925    434.74918    23.499131    22.154266   0.66301137    435.41219   -2254.0555 
   10700    -102418.4   -92710.548     235.7426    20724    226788.09    54.087121   -4.8081555    176.52996   -9.4604449    435.18617    23.510929    22.165389   0.44451613    435.63068   -2262.8584 
   10800   -102451.24    -92690.34     237.0307    20724    226540.91   -80.735223    123.70392   -175.58917   -190.32041    434.79136     23.50878    22.163363   0.64192005    435.43328   -2285.4236 
   10900   -102350.52   -92677.146    234.90532    20724    226721.05    35.634882   -60.520254    103.77902    63.645877     434.9032      23.5151    22.169322   0.58600157     435.4892    -2300.239 
   11000   -102318.84   -92647.584    234.85398    20724     226706.2   -89.952648    180.45751   -321.49453   -128.82093    435.26388    23.504585    22.159409   0.40565772    435.66954   -2324.3632 
   11100   -102358.14   -92619.671    236.48615    20724    226786.27   -35.464808    -139.4086   -288.30625    321.32042    435.35397    23.506304    22.161028   0.36061568    435.71458    -2354.184 
   11200   -102354.34   -92630.922    236.12049    20724    226584.63    1.3384934    -19.61638    290.28275   -266.65089    435.37176    23.495371    22.150722   0.35172167    435.72348   -2353.0764 
   11300   -102418.97   -92638.611    237.50337    20724    226648.52    -9.886958   -79.239381   -174.24423    223.82273    435.18799    23.503644    22.158521   0.44360339     435.6316    -2344.427 
   11400   -102265.28   -92566.935    235.51179    20724    226484.18   -44.218367   -11.753561   -31.824468   -89.077073    435.10156    23.497455    22.152686   0.48681999    435.58838   -2417.5861 
   11500   -102236.57   -92544.737     235.3536    20724    226638.71    42.044847    3.6959736   -39.853385    162.29195    435.19256    23.503013    22.157926    0.4413207    435.63388   -2440.6803 
   11600   -102291.08   -92514.791    237.40441    20724     226528.6   -4.0884415   -183.07061    203.40249   -32.597207    435.19383    23.497268     22.15251   0.44068735    435.63451   -2473.0903 
   11700   -102322.21   -92505.292     238.3911    20724    226574.15    2.2145487    58.863745    122.20206   -174.42216    435.16667    23.500364    22.155428   0.45426458    435.62094   -2483.2044 
   11800   -102234.72   -92477.627     236.9382    20724    226603.04    4.2760313    165.44044   -183.70858    31.096227    435.23463    23.500027    22.155111   0.42028685    435.65491   -2512.1969 
   11900   -102241.96    -92471.56    237.26146    20724    226676.35    19.602995     52.32683    8.2923736   -1.8102186    435.32065    23.501505    22.156505    0.3772743    435.69793   -2517.8693 
   12000   -102170.32   -92480.567    235.30294    20724    226566.69     32.04015    286.43528    72.055182   -262.37001    435.23995    23.497999    22.153199   0.41762605    435.65757   -2511.7354 
   12100   -102273.21   -92469.015    238.08217    20724    226640.98     32.93941    82.855163   -51.976466    67.939533    435.37429    23.498224    22.153411   0.35045463    435.72475   -2525.5947 
   12200   -102263.41   -92484.262    237.47382    20724    226568.72    -10.31552    -64.17516    26.480729    6.7478717    435.14641    23.500629    22.155679   0.46439518     435.6108   -2512.4075 
   12300    -102241.9   -92453.598    237.69612    20724    226453.19    18.634595     50.16021    76.358914   -70.615338    435.31104    23.490194    22.145841   0.38208006    435.69312   -2544.8113 
   12400   -102115.95   -92428.019     235.2587    20724    226439.88     25.05832    160.44268   -252.63156    167.36384    434.94235    23.499457    22.154573   0.56642526    435.50877   -2572.0291 
   12500   -102198.86   -92392.854    238.12599    20724    226595.74   -56.695965   -270.66465    78.567979    22.008774     435.2139    23.500208    22.155282   0.43065215    435.64455   -2602.3224 
   12600   -102178.75   -92376.501    238.03484    20724    226487.91   -44.237083   -89.352794   -287.00387    243.64542     435.0538    23.498938    22.154085   0.51070064     435.5645   -2622.4781 
   12700   -102105.46   -92379.863    236.17347    20724     226507.7  -0.79627145    99.354976   -89.687189   -12.056602     434.9802    23.501953    22.156927    0.5474989     435.5277   -2621.8717 
   12800   -102219.99   -92396.303    238.55537    20724    226529.82   -55.983383   -80.272328   -1.2176411    -86.46018    434.94242    23.504122    22.158971   0.56639155    435.50881   -2603.8255 
   12900   -102101.18   -92343.589    236.95033    20724    226569.13    48.808537   -21.678887   -23.393862    191.49836    434.98587    23.504987    22.159787   0.54466416    435.53054   -2661.4298 
   13000   -102076.85   -92342.232    236.39259    20724    226537.67   -13.709641   -25.336905   -67.443944    51.651925    434.84117    23.507265    22.161935   0.61701627    435.45818   -2661.4953 
   13100   -102247.24   -92354.637    240.22906    20724    226487.02    -138.3772   -95.570075   -270.84984   -48.711694    434.78928    23.506039    22.160779   0.64295998    435.43224   -2648.1478 
   13200   -102113.56    -92311.29    238.03544    20724    226446.96    40.329278   -13.992659    108.70952    26.270968    434.86578    23.501893     22.15687   0.60470759    435.47049   -2698.8672 
   13300   -102097.58   -92295.342    238.03462    20724    226289.24   -9.7063455   -26.262663   -204.38614    201.52976    434.74414    23.496994    22.152251   0.66553207    435.40967   -2717.2737 
   13400   -102156.26   -92300.256    239.34031    20724    226593.34    5.4100199    1.3365146    48.164349   -33.270804    434.89332    23.508743    22.163329   0.59094104    435.48426   -2706.3612 
   13500   -102156.26   -92311.687    239.06266    20724    226550.98   -50.977916   -127.77098   -88.192295    63.029521    434.88401    23.506798    22.161494   0.59559743     435.4796   -2692.2005 
   13600   -102124.67   -92362.955    237.05047    20724    226424.73     70.88047    37.218918    27.333102    148.08939    434.66135    23.506265    22.160992   0.70692396    435.36828   -2653.5776 
   13700   -102128.58   -92330.906    237.92365    20724    226369.25   -40.531137   -98.148271   -312.72483    289.27969    434.72609    23.501635    22.156627   0.67455584    435.40064   -2683.3305 
   13800   -102180.84   -92291.926    240.13938    20724    226558.77    19.526763   -86.657556    159.13478   -13.896938    434.91926    23.506249    22.160977   0.57796894    435.49723   -2720.8466 
   13900   -102075.15   -92268.987    238.12993    20724     226427.7    15.860917   -39.409447    5.6080747    81.384123    434.86066    23.501032    22.156058   0.60727098    435.46793   -2745.9175 
   14000   -102153.71   -92252.938     240.4274    20724     226543.9   -35.393413    87.673381   -159.74647   -34.107153    435.05819    23.501725    22.156711   0.50850606    435.56669   -2759.0955 
   14100   -102073.33   -92252.638     238.4826    20724    226340.64    21.045505    42.756968    109.22659   -88.847047    434.55485    23.504779    22.159592   0.76017593    435.31502    -2766.827 
   14200   -102080.43   -92273.393    238.15113    20724    226580.24   -68.121263    24.896057   -53.564116   -175.69573    434.75777    23.511728    22.166143   0.65871715    435.41648   -2738.3317 
   14300   -102120.66   -92232.937    240.11043    20724    226477.44    43.650539    273.79351   -25.506195    -117.3357    434.72546    23.507268    22.161937   0.67486798    435.40033   -2789.0385 
   14400   -102140.92   -92224.788    240.80039    20724    226353.32   -43.366226   -47.858058   -211.17505    128.93443    434.54866    23.505606     22.16037   0.76327091    435.31193   -2795.7821 
   14500   -102112.27   -92181.759    241.14942    20724    226409.31    20.723865    4.2188525    33.698893    24.253849     434.6092    23.506875    22.161567   0.73299962     435.3422   -2842.5283 
   14600   -102061.37   -92168.361    240.23877    20724    226525.34   -56.196364   -17.441577   -263.11511    111.96759    434.72617    23.509734    22.164263   0.67451303    435.40069   -2849.6335 
   14700   -102052.95    -92192.84    239.43993    20724    226350.57    -2.006339    74.180967    17.682411   -97.882394    434.62302    23.503452     22.15834   0.72609209    435.34911    -2834.403 
   14800    -102024.9   -92155.372    239.66861    20724    226527.52    42.514279   -98.655104    86.790991    139.40695    434.66696    23.511448    22.165879    0.7041191    435.37108   -2867.9353 
   14900   -101950.36   -92136.292    238.32194    20724    226450.74    -57.23496   -74.037498   -52.646886   -45.020495    434.75235    23.505155    22.159945   0.66142688    435.41377   -2886.5339 
   15000   -101961.08    -92150.94    238.22655    20724    226635.97    34.758569    85.837302    53.151818   -34.713412     434.7906    23.513732    22.168032   0.64230184     435.4329   -2870.7529 
   15100   -102070.48   -92150.227    240.90034    20724    226584.51   -28.858502   -115.52585   -51.679614    80.629961    434.53293    23.518032    22.172085   0.77113495    435.30407    -2871.693 
   15200   -101954.37   -92149.551    238.09734    20724    226392.34    4.0617384    19.098223   -303.70126    296.78825    434.81221    23.500506    22.155563   0.63149363    435.44371   -2880.6583 
   15300    -101889.5    -92125.53    237.10535    20724    226479.97    28.951831    113.45392    19.326515   -45.924943     434.7115    23.507776    22.162417   0.68184914    435.39335   -2903.8129 
   15400   -101990.97   -92140.899    239.19616    20724    226391.51    13.599922    8.5066307   -32.855154    65.148288    434.62195    23.505606    22.160371   0.72662457    435.34858   -2893.9017 
   15500   -101971.19   -92122.714    239.15731    20724    226460.24    7.3657529   -58.697405   -318.07076    398.86542    434.84464    23.503153    22.158058   0.61527956    435.45992   -2909.4227 
   15600   -101937.53   -92093.111    239.05895    20724     226265.3   -27.815518   -142.91997      315.934   -256.46058    434.73466    23.496006    22.151321   0.67026756    435.40493   -2942.5192 
   15700   -101878.78   -92093.531    237.62214    20724    226276.58    56.264182   -21.677989    163.70386    26.766673    434.54527    23.501712      22.1567   0.76496669    435.31023   -2946.9974 
   15800   -101835.74   -92097.555    236.47921    20724    226352.76    5.7543117   -118.28787   -133.51112    269.06193    434.57451    23.504877    22.159684   0.75034513    435.32485    -2939.022 
   15900   -102044.13   -92106.674    241.31822    20724    226176.91   -46.578891   -87.300007   -180.49552    128.05885    434.66055     23.49342    22.148882   0.70732635    435.36787   -2935.5957 
   16000   -101996.71   -92052.971    241.47076    20724     226460.8   -91.353005   -134.44183    55.188083   -194.80527    434.54945    23.511164    22.165611   0.76287506    435.31232   -2981.1126 
   16100   -101995.69   -92072.454    240.97294    20724    226210.12    9.9319651    176.77558   -32.888632   -114.09106    434.31121    23.504591    22.159414    0.8819932    435.19321   -2973.5694 
   16200      -101886   -92081.323    238.09372    20724    226115.75   -18.126224    127.28302   -182.71047    1.0487761    434.37632    23.497927    22.153132   0.84944194    435.22576   -2966.2123 
   16300   -101925.62   -92040.785    240.04029    20724    226136.75    5.9959959   -200.10047    55.385371    162.70308    434.28088      23.5016    22.156594    0.8971607    435.17804   -3009.9119 
   16400   -101829.27   -91982.853    239.10745    20724    226227.36    52.689869    151.15502    42.580602   -35.666019    434.24514    23.507275    22.161945   0.91503149    435.16017   -3067.7647 
   16500   -101895.83   -91979.135    240.81392    20724    226382.61    153.18291    304.91246    38.254154    116.38212    434.48592    23.508823    22.163404   0.79464204    435.28056   -3073.8889 
   16600   -101822.73   -91923.339    240.39375    20724    226268.56   -36.514665    -131.9427    24.452558   -2.0538524    434.34816    23.506627    22.161334   0.86351754    435.21168   -3124.1319 
   16700   -101858.92   -91874.018    242.47028    20724     226301.1    15.862346    214.86947    36.169024   -203.45146    434.29917    23.509644    22.164177   0.88801264    435.18719   -3177.4721 
   16800   -101748.79   -91893.121    239.33204    20724    226395.86   -44.949312    47.917499   -127.57229   -55.193142    434.78786    23.501347    22.156355   0.64366834    435.43153    -3151.921 
   16900   -101733.34   -91861.303    239.72962    20724     226213.3    29.738217    251.68285   -223.88887    61.420671    434.56076    23.498007    22.153207   0.75721899    435.31798   -3193.4497 
   17000   -101733.82   -91852.802     239.9477    20724    226372.65    28.496008    120.29039   -134.75139    99.949023    434.66368    23.503499    22.158384   0.70576021    435.36944   -3198.3986 
   17100   -101760.77   -91860.915    240.40519    20724    226345.64   -84.402154   -98.629789    -87.31808   -67.258592    434.64043    23.502725    22.157655   0.71738644    435.35781   -3186.3228 
   17200   -101847.18    -91898.83    241.58275    20724    226230.26   -48.288708   -210.88451   -348.87087    414.88926    434.37506     23.50391    22.158772   0.85007072    435.22513   -3154.4201 
   17300   -101870.71    -91870.78    242.83524    20724    226223.65   -62.766908    8.4115673   -151.16725   -45.545042    434.37579    23.503547     22.15843   0.84970449     435.2255   -3185.4672 
   17400   -101802.83   -91865.871     241.3061    20724    226204.27   -7.8865701   -8.1313995   -68.438804    52.910493    434.16917    23.508132    22.162752   0.95301426    435.12219   -3194.4627 
   17500   -101693.65   -91857.663    238.85416    20724    226176.87    44.480356    19.721934    147.46015   -33.741018    434.01222    23.510958    22.165417    1.0314903    435.04371   -3206.2355 
   17600   -101797.05   -91845.826    241.65252    20724    226247.23    16.191807    126.03322   -12.641405   -64.816398    434.47088      23.5022     22.15716   0.80216232    435.27304   -3215.1987 
   17700   -101763.19   -91816.616    241.53956    20724    226376.48    31.635739    326.40989   -68.104065   -163.39861    434.48097    23.508639     22.16323   0.79711706    435.27808   -3242.8437 
   17800   -101778.42   -91805.972    242.16798    20724    226136.84   -90.314215    38.477158   -263.16802    -46.25178    434.29992     23.50109    22.156113   0.88763965    435.18756   -3254.6501 
   17900    -101773.4   -91766.034    243.01573    20724     226233.9   -5.5191592    -32.10003   -107.83195    123.37451    434.09096    23.511789      22.1662    0.9921179    435.08308    -3298.374 
   18000   -101616.47   -91728.369    240.11966    20724    226305.65     57.77031    -72.02825    288.91664   -43.577459    434.33675    23.508863    22.163441    0.8692254    435.20597   -3334.9568 
   18100    -101618.2   -91680.903    241.31443    20724    226231.05    1.4911879    11.563692   -121.20197    114.11184    434.59013    23.498135    22.153327   0.74253675    435.33266   -3383.9319 
   18200   -101704.17   -91718.314    242.49355    20724    226181.55    36.909536    116.73021    56.357003   -62.358609    434.42397    23.500057    22.155139   0.82561676    435.24958   -3352.9805 
   18300   -101647.12   -91731.734    240.78218    20724    226174.01   -29.052212   -23.441595    37.663521   -101.37856    434.44754    23.499028    22.154169   0.81382864    435.26137    -3335.515 
   18400   -101661.94   -91719.553    241.43802    20724    226280.91   -16.758555     73.39996   -168.41337    44.737749     434.5443    23.501963    22.156936   0.76545035    435.30975   -3346.1261 
   18500   -101719.49   -91752.217    242.04219    20724    226105.17    11.162764    4.3739106    39.470464   -10.356084    434.45875    23.495148    22.150511   0.80822555    435.26697   -3322.9243 
   18600   -101687.44   -91718.788    242.07573    20724    226212.73    53.517607    78.071708    73.136041    9.3450729    434.56016    23.497994    22.153194   0.75752183    435.31768   -3353.0978 
   18700   -101667.34   -91709.803     241.8059    20724    226217.97    36.969845   -27.077707    208.30407   -70.316831    434.34781    23.504009    22.158865   0.86369621     435.2115   -3364.2263 
   18800   -101695.04   -91717.519    242.29117    20724    226185.49    5.3527077    135.27805   -310.20344    190.98352    434.41347    23.500545      22.1556   0.83086384    435.24434   -3356.7495 
   18900   -101711.21   -91686.823    243.42926    20724    226175.56    2.8335692    75.043633   -271.11949    204.57656    434.52098    23.497122    22.152373   0.77711212    435.29809   -3389.4515 
   19000   -101671.39   -91679.652    242.63631    20724    225963.24    9.9564619   -119.94808   -39.855207    189.67267    434.19776    23.494831    22.150212   0.93871882    435.13648   -3403.7682 
   19100   -101613.01   -91684.778    241.09409    20724    226035.94    35.273151    230.41948   -91.862408   -32.737624    434.17447     23.49924    22.154369   0.95036583    435.12483   -3395.7737 
   19200   -101638.86   -91694.739    241.48012    20724     226200.1    1.4693217   -78.684884    203.60999   -120.51714    434.55455    23.497489    22.152719   0.76032638    435.31487   -3382.1493 
   19300   -101662.15   -91682.739    242.33711    20724    226204.69    13.174562    9.7877493    85.350988   -55.615052    434.37302    23.502637    22.157572   0.85109128    435.22411   -3394.9723 
   19400   -101628.09   -91692.545    241.27187    20724    226072.18   -8.2974424   -58.128091   -6.7021225    39.937886    434.11558    23.502718    22.157648   0.97980863    435.09539   -3388.6899 
   19500   -101595.78   -91694.439    240.44109    20724    226215.65    38.328203    172.24642   -38.384106   -18.877709    434.04143    23.512183    22.166571    1.0168868    435.05831   -3385.4698 
   19600   -101523.46   -91647.263    239.83058    20724    226039.25    126.76438    259.38069   -27.073081    147.98553    433.96341    23.505126    22.159919    1.0558943    435.01931   -3442.3712 
   19700   -101571.83   -91631.787    241.38107    20724    226121.78   -8.8947953    23.462894   -217.95321    167.80593    433.99945    23.508441    22.163043    1.0378762    435.03732   -3450.8006 
   19800   -101647.94   -91646.035    242.88332    20724     226235.4    -4.124545    72.345403   -67.519955   -17.199084    433.84182    23.518618    22.172638    1.1166894    434.95851   -3436.3851 
   19900   -101637.92   -91617.756    243.32656    20724    225960.43    32.137657     312.1175   -113.66341   -102.04112    433.53589    23.512613    22.166976    1.2696539    434.80555   -3474.5823 
   20000   -101621.16   -91584.322    243.73164    20724    225921.14   -29.277742   -30.378922   -133.85575    76.401443    433.59352    23.509006    22.163576    1.2408388    434.83436    -3508.964 
   20100   -101442.25   -91574.476    239.62595    20724    225726.99    70.682795    272.25905   -56.377843   -3.8328205    433.78875    23.493614    22.149065    1.1432247    434.93198   -3528.1012 
   20200   -101546.38   -91564.241    242.40318    20724    225881.14    26.323171   -26.650686    212.61542   -106.99522    433.57775    23.507352    22.162017    1.2487273    434.82647   -3534.2358 
   20300    -101487.8   -91560.655    241.06772    20724    225888.47   -11.290208   -37.058979   -70.338255    73.526609    433.52452    23.509176    22.163737    1.2753403    434.79986   -3536.8182 
   20400   -101553.41   -91516.281    243.73861    20724    225899.47    17.573398    45.169448    6.3832192    1.1675262    433.73056    23.504164    22.159011     1.172318    434.90288   -3583.8929 
   20500   -101609.21   -91561.586    243.99339    20724    225939.89    23.822398   -94.732089    448.36921   -282.16992    433.67669    23.507727     22.16237    1.1992571    434.87594   -3538.0523 
   20600   -101527.12   -91552.555    242.21933    20724    225697.84    9.0428533    100.77987   -31.657687   -41.993622    433.47321    23.500645    22.155694    1.3009942    434.77421   -3552.9763 
   20700   -101557.17     -91497.9    244.27626    20724    226001.76   0.87594937    -6.317688   -278.84649    287.79203    433.68755    23.510651    22.165127    1.1938227    434.88138   -3600.1633 
   20800      -101463   -91495.697    242.04302    20724    225834.02    33.078019    48.698721   -58.752155    109.28749     433.5306    23.506178     22.16091     1.272302     434.8029   -3610.0273 
   20900   -101483.44   -91544.265    241.35995    20724    225945.04    96.342656    122.58825    305.35776   -138.91804    433.78245    23.505128    22.159921    1.1463738    434.92883   -3561.4858 
   21000   -101518.29   -91501.284    243.25006    20724     226038.2   -67.284523   -359.46713    98.758319     58.85524     433.7115    23.511897    22.166302    1.1818512    434.89335    -3593.838 
   21100   -101509.91   -91469.612    243.81547    20724    226200.15   -70.903913    157.11657   -48.573908   -321.25441    433.60171    23.523295    22.177048    1.2367435    434.83846   -3623.3045 
   21200   -101496.15   -91534.501    241.90561    20724    225849.64    36.715241    46.831466    209.12593   -145.81167    433.58359    23.505554    22.160322    1.2458034     434.8294   -3574.8862 
   21300   -101558.22   -91491.185    244.46479    20724    226056.16   -35.638258   -153.26163   -266.33069    312.67754    433.59951    23.515867    22.170044    1.2378429    434.83736   -3610.6213 
   21400   -101464.97   -91460.995    242.93338    20724    225990.64    39.124392    28.598931    48.062972    40.711274     433.5957    23.512562    22.166929    1.2397507    434.83545   -3645.4913 
   21500    -101367.1   -91444.506    240.95726    20724    225877.22    164.13458     253.1422    158.50393     80.75761     433.5439    23.508066     22.16269    1.2656503    434.80955   -3674.3144 
   21600   -101455.48   -91410.989    243.91735    20724    226034.88   -11.523623    52.775348    95.290516   -182.63673    433.71569     23.51161    22.166032    1.1797545    434.89545   -3696.5049 
   21700   -101405.18   -91390.848    243.18512    20724    225852.34    55.708754    93.938338    49.714293     23.47363    433.62261    23.504637    22.159457    1.2262942    434.84891   -3725.1597 
   21800   -101488.07   -91372.229     245.6499    20724    225965.39   -71.556549   -75.239953   -144.51498     5.085285    433.80374     23.50561    22.160375    1.1357292    434.93947   -3734.7174 
   21900    -101407.8   -91371.403    243.72081    20724    225885.55    83.704513    200.40363   -179.21439    229.92431    433.46326    23.510686     22.16516    1.3059725    434.76923   -3747.5902 
   22000      -101423    -91399.99    243.39585    20724    226136.95    116.01093    65.200757    248.24898    34.583058    433.55941    23.521156    22.175031    1.2578938    434.81731   -3714.0406 
   22100   -101489.46   -91428.344    244.32115    20724    225883.54   -97.528063   -138.47293    -48.27633   -105.83493    433.75333    23.502719    22.157649    1.1609357    434.91426   -3686.6793 
   22200   -101409.88   -91383.781    243.47085    20724    225972.52     45.46557    7.9139219     33.36305    95.119737    433.87513    23.504047    22.158901    1.1000351    434.97516   -3733.1205 
   22300    -101405.8   -91369.259    243.72442    20724    226027.41    13.289027    -73.47153   -15.300989     128.6396    434.03594    23.502547    22.157487    1.0196293    435.05557   -3747.4046 
   22400   -101320.93   -91350.817    242.11109    20724    226122.47    35.227068    95.198657   -162.71411    173.19666    433.99227    23.508671     22.16326    1.0414657    435.03373   -3763.7682 
   22500   -101351.54   -91317.634    243.66036    20724    226186.83      1.52051  -0.93173218    42.345906   -36.852644    433.96962     23.51263    22.166993    1.0527896    435.02241   -3794.6731 
   22600    -101302.5   -91308.939    242.68068    20724    226105.61    13.317027    208.45931     147.7227   -316.23093    433.94489    23.509078    22.163644    1.0651546    435.01005   -3807.4388 
   22700   -101413.99   -91294.705    245.73366    20724    226274.05    -18.48002   -153.40122    252.27675    -154.3156    434.09296    23.513821    22.168116   0.99111828    435.08408   -3816.9113 
   22800   -101316.44    -91298.65    243.26907    20724    225993.53    1.5320597    75.730093   -92.421639    21.287725    433.98411    23.502189    22.157149    1.0455446    435.02966   -3821.6582 
   22900   -101346.89   -91305.372    243.84521    20724    225972.72   -44.804615   -153.84902     266.7575   -247.32232    433.92119     23.50281    22.157735    1.0770048     434.9982    -3815.395 
   23000   -101306.61   -91274.343    243.62044    20724    226249.18    14.971051   -97.206738   -145.50541     287.6253    433.98344    23.515496    22.169694    1.0458791    435.02932   -3842.2602 
   23100   -101262.73   -91265.494    242.76986    20724    226137.97    2.2662602   -205.66761    40.944845    171.52154    433.99915     23.50929    22.163844    1.0380235    435.03718   -3854.2456 
   23200   -101296.48   -91257.664    243.77955    20724    226209.34    27.872801    56.013718    22.613663    4.9910214    433.99844    23.513019     22.16736    1.0383799    435.03682   -3862.2472 
   23300   -101287.03   -91287.104    242.83526    20724    226094.76    31.699626    7.8200215   -33.885452    121.16431    433.90586    23.509571    22.164109    1.0846699    434.99053   -3837.2689 
   23400    -101311.9   -91262.371     244.0398    20724    225991.42    61.576516    28.675943   -36.849443    192.90305    433.85567    23.505557    22.160325    1.1097661    434.96543    -3866.974 
   23500   -101371.58   -91273.362    245.22215    20724    225957.63   -24.275538   -45.560949   -162.79406     135.5284    433.78336    23.505759    22.160515    1.1459181    434.92928   -3856.4354 
   23600   -101399.77   -91261.914    246.18467    20724    226151.68    39.266703    30.367586    37.365946    50.066578    433.91929    23.512166    22.166556     1.077957    434.99724   -3866.4268 
   23700   -101402.86   -91288.226    245.62062    20724    225934.71   -23.858595    34.132232   -59.956677   -45.751339    433.69245     23.50703    22.161713    1.1913766    434.88382   -3844.5333 
   23800   -101321.17   -91268.548    244.11492    20724    226003.32    64.952804    9.6317495    150.26376    34.962901    433.98622     23.50264    22.157575    1.0444882    435.03071    -3868.166 
   23900   -101352.98   -91268.324    244.89269    20724     225855.6   -12.794337   -44.042231    203.82387   -198.16465    433.99641    23.494683    22.150072    1.0393963     435.0358   -3868.4993 
   24000   -101369.85   -91223.854    246.38222    20724    226239.56   -5.1665314   -79.849107    171.06301   -106.71349    433.97798    23.515144    22.169363    1.0486096    435.02659   -3904.9428 
   24100   -101325.82   -91226.249    245.25493    20724    226022.44   -21.382615   -23.457329   -38.778478   -1.9120371    433.75645    23.509859     22.16438    1.1593753    434.91582   -3906.8227 
   24200   -101301.72   -91241.229    244.30592    20724    226122.13    48.303567   -98.070138    296.98074   -53.999902    433.98389     23.50888    22.163458    1.0456531    435.02955   -3894.2953 
   24300    -101291.9   -91230.675    244.32369    20724    226229.21    74.095026    93.993834     298.3528   -170.06156    434.24995    23.507241    22.161912   0.91262531    435.16257   -3900.7839 
   24400   -101268.69   -91235.066    243.65347    20724     226114.4    -35.13397    7.4004899    -40.94951    -71.85289    433.93348    23.509844    22.164366    1.0708605    435.00434   -3896.1911 
   24500   -101225.29   -91205.023    243.32903    20724    226168.13   -60.136962    -245.7987   -129.57784    194.96565     434.1272     23.50739    22.162053   0.97400007     435.1012   -3924.0072 
   24600   -101308.55   -91190.517    245.70335    20724    226182.52     -3.61432    89.563042    115.12669   -215.53269    434.11357    23.508507    22.163106   0.98081679    435.09438   -3943.4855 
   24700   -101240.68   -91185.806    244.16955    20724     225984.7   -9.0133503    21.768714   -131.66082    82.852059    434.10021    23.498586    22.153753    0.9874957     435.0877   -3954.6323 
   24800   -101259.15   -91146.738    245.56665    20724     226470.3   -22.357172    211.15563   -319.55587    41.328724    434.29449    23.518558    22.172581   0.89035685    435.18484   -3979.5109 
   24900   -101243.73   -91168.929    244.65344    20724    226107.93    69.412009   -45.763783    70.774411     183.2254    434.09215    23.505211    22.159998   0.99152506    435.08367   -3973.4526 
   25000   -101226.88   -91156.537     244.5452    20724     226225.9    49.513589    -5.524631     137.6537    16.411694    434.34394    23.504526    22.159353   0.86563208    435.20957   -3982.7727 
   25100   -101241.04   -91158.022    244.85294    20724    226108.79     2.937274   -5.4582977    83.580413   -69.310293    434.17146    23.503108    22.158016   0.95187068    435.12333   -3984.6061 
   25200   -101221.22   -91160.823    244.30367    20724    225949.29   -65.044598   -21.698011   -148.34021   -25.095573    434.04533    23.498231    22.153417    1.0149353    435.06026    -3983.977 
   25300      -101211   -91098.073    245.57931    20724    226111.65    33.849444   -54.936435   -79.284017    235.76878    433.93919    23.509546    22.164085    1.0680059    435.00719   -4048.1875 
   25400   -101237.06   -91110.029    245.92182    20724    225989.36    -28.76736   -148.04269     146.8424   -85.101792     433.6803    23.510202    22.164704    1.1974489    434.87775   -4037.6836 
   25500    -101271.5   -91113.606    246.67114    20724    226050.96   -30.726024   -42.539718    25.081044   -74.719397    433.88449    23.507873    22.162508    1.0953559    434.97984   -4033.5113 
   25600   -101201.21   -91090.034    245.53665    20724    225911.39   -45.882728    110.26723   -138.69573   -109.21968    433.80426    23.502788    22.157714    1.1354684    434.93973   -4060.6897 
   25700   -101225.74   -91078.886    246.40305    20724    225928.41   -5.8556854   -41.844884    300.22226   -275.94443    433.97976     23.49892    22.154067     1.047719    435.02748   -4074.1621 
   25800   -101189.05   -91086.749    245.32113    20724    226049.79    14.343718    -88.94295    235.83169   -103.85758    433.74033    23.511718    22.166133    1.1674364    434.90776   -4063.4244 
   25900   -101336.79   -91078.807     249.1017    20724    226042.57   -98.812637    62.316545   -192.33748   -166.41697    433.81118    23.509422    22.163969     1.132008    434.94319   -4068.8307 
   26000   -101300.33   -91074.308    248.32563    20724    226004.64    12.896541    131.35503   -120.62128    27.955873    433.82394    23.507104    22.161783     1.125629    434.94957   -4080.6697 
   26100   -101228.35    -91083.15    246.36289    20724    226000.59   -49.226406   -16.085677   -100.16834   -31.425199     433.6964     23.51035    22.164843    1.1894013     434.8858   -4068.8888 
   26200   -101257.55   -91077.504    247.20914    20724    226071.29   -95.267332    37.464093    19.046842   -342.31293    433.88589    23.508892    22.163469    1.0946566    434.98054     -4074.59 
   26300    -101206.5   -91054.912    246.51803    20724    226162.47   -80.027284    69.864884   -46.905892   -263.04084    433.92789    23.512494    22.166865     1.073653    435.00155   -4093.5932 
   26400   -101208.91   -91028.824     247.2101    20724    226010.46    38.337006     328.7561    17.820855   -231.56594    433.91174    23.505029    22.159826    1.0817294    434.99347   -4131.4982 
   26500   -101228.24   -91017.018    247.96633    20724    226425.45   -48.224348   -204.74118   -105.35918    165.42732    433.89566    23.527034    22.180573    1.0897723    434.98543   -4129.7625 
   26600   -101233.42   -91003.494    248.42039    20724    225962.67    -63.24158      6.91154   -186.81576   -9.8205206    433.63112    23.510147    22.164652    1.2220418    434.85316   -4157.3981 
   26700    -101169.1   -91004.577    246.83233    20724    226131.29   -59.092474   -74.041083   -40.463954   -62.772385    433.93073    23.510797    22.165264    1.0722367    435.00296   -4151.6776 
   26800    -101188.9   -90992.432    247.60804    20724    226165.19   -86.061403    -157.0074    120.33618   -221.51299    434.11969    23.507441    22.162101   0.97775704    435.09744   -4163.1105 
   26900   -101149.62   -90983.382    246.87381    20724    225855.07   -58.105781   -30.333001    120.24629   -264.23063    433.85237    23.498554    22.153723    1.1114137    434.96379   -4183.4067 
   27000   -101089.53   -90955.326    246.09583    20724    226169.84    64.777589   -112.57129    85.152081    221.75198    433.92738    23.512891    22.167239    1.0739075    435.00129   -4210.5633 
   27100   -101112.57   -90957.822    246.59479    20724    225871.15   -70.860207   -241.75435   -59.897138    89.070869    433.49891     23.50897    22.163542    1.2881434    434.78706   -4211.1198 
   27200   -101216.08   -90991.362    248.29392    20724    226030.58     -70.5136   -155.17891    53.956871   -110.31876    433.66414    23.512784    22.167138    1.2055303    434.86967   -4174.1247 
   27300    -101121.5   -90986.149    246.12371    20724    225920.04     114.8356    145.63771       144.25    54.619093    433.58446    23.509194    22.163753    1.2453708    434.82983   -4192.3823 
   27400   -101134.31    -91026.91    245.44495    20724    225550.97   -2.9363706    -25.69616   -41.684368    58.571417    433.29277    23.497889    22.153095    1.3912126    434.68399   -4159.2163 
   27500   -101129.67   -90959.218    246.97611    20724     225896.1    58.444681   -246.85679     243.7299    178.46093    433.47121    23.511019    22.165474    1.3019947    434.77321   -4219.6028 
   27600   -101187.83   -90935.272    248.96997    20724    225916.51   -18.163336     89.67512    -83.28082   -60.884307    433.20384    23.519336    22.173315    1.4356795    434.63952     -4242.38 
   27700   -101150.44    -90950.08    247.70246    20724     225747.7   -1.2938681   -150.18349   -4.1408954    150.44278    433.38844     23.50554    22.160308    1.3433803    434.73182   -4235.3115 
   27800   -101185.35   -90945.979    248.64973    20724    225898.77   -143.55261   -48.609409   -56.603104   -325.44533    433.39067    23.513343    22.167665     1.342265    434.73293   -4229.7745 
   27900   -101225.31   -90952.682    249.45733    20724    225949.84    112.16627   -110.30574    175.68857    271.11598    433.24054    23.520074    22.174011    1.4173284    434.65787   -4235.5806 
   28000   -100996.01   -90938.586    244.23145    20724    225726.16   -5.6578141    -167.8211    207.96219   -57.114535     433.3498    23.505466    22.160238    1.3627024     434.7125   -4249.9759 
   28100   -101121.97   -90930.441    247.48793    20724    225908.65   -12.986941    43.154679    57.254139   -139.36964    433.41513    23.513193    22.167524    1.3300335    434.74517    -4254.762 
   28200   -101216.39   -90918.611     250.0682    20724    225718.89   -100.81822   -26.149952      49.0021   -325.30681     433.2551    23.507656    22.162304    1.4100505    434.66515   -4270.1352 
   28300   -101056.95   -90919.624    246.17165    20724    225900.62     48.52552     56.58195    107.92345   -18.928843     433.1825    23.519088    22.173081    1.4463489    434.62885   -4269.4504 
   28400   -101026.66    -90926.37    245.27247    20724    225749.67    58.098935     228.8066   -87.107804    32.598013    433.17925    23.511317    22.165755    1.4479734    434.62723   -4269.3509 
   28500   -101164.65   -90915.532    248.88644    20724     225686.2   -54.851964    -65.45945   -292.79783    193.70139    433.31156    23.504422    22.159255    1.3818202    434.69338   -4279.2834 
   28600   -101069.44   -90886.053    247.29033    20724    225525.63   -65.224075   -46.837391    103.07216   -251.90699    433.30507    23.496235    22.151536    1.3850634    434.69014   -4311.7666 
   28700   -101114.63    -90888.68    248.32378    20724    225602.03    21.433219    196.84303   -114.90558   -17.637789    433.32915    23.499562    22.154673    1.3730265    434.70217   -4313.8991 
   28800   -101157.09   -90880.255    249.55952    20724    225657.33   -43.664707   -51.554403   -151.25137    71.811648    433.43847    23.499478    22.154593    1.3183653    434.75683   -4319.2123 
   28900   -101044.47   -90890.119    246.58524    20724    225683.78   -5.5940947    89.344878    17.084108   -123.21127    433.39264    23.502097    22.157063    1.3412813    434.73392   -4309.4446 
   29000    -101012.4    -90878.06    246.09924    20724    225601.48   -33.083384   -20.295749    43.180014   -122.13442    433.13658    23.504756     22.15957    1.4693087    434.60589   -4323.9484 
   29100   -101033.38   -90827.106    247.84616    20724    225742.87   -37.979968    -56.77018   -76.904159    19.734434    432.96946    23.516658     22.17079    1.5528676    434.52233   -4371.2881 
   29200   -101004.87   -90809.564    247.57976    20724    225784.68    101.65212    95.162916    252.42405   -42.630612    433.02569    23.517309    22.171404    1.5247532    434.55045   -4395.2434 
   29300   -101020.01   -90819.256    247.71209    20724    225726.87    48.323746    24.380357    177.99596   -57.405078    432.93108    23.516867    22.170987    1.5720587    434.50314   -4384.3892 
   29400   -100959.72   -90783.493    247.11644    20724    225728.88   -9.7757403      126.913    78.400479    -234.6407    432.86075    23.518882    22.172887    1.6072244    434.46798    -4419.101 
   29500    -100975.7   -90815.848    246.71881    20724    225760.07   -51.948608   -78.915812    -247.2242    170.29419    432.95947    23.517825    22.171891    1.5578628    434.51734   -4385.8861 
   29600   -101045.57   -90796.116    248.89458    20724    225795.71    34.402475    172.48237    29.396516   -98.671457    433.14835    23.514553    22.168805    1.4634233    434.61178   -4408.2645 
   29700    -100943.6   -90761.413    247.26113    20724    225655.11   -39.819555    -54.24176    344.12741   -409.34431     433.0504    23.509889    22.164409    1.5124023     434.5628   -4445.7982 
   29800   -100983.67   -90792.881    247.47008    20724    225686.34     70.20284    7.6564037    72.086717     130.8654    432.96259      23.5139     22.16819    1.5563046     434.5189   -4418.6931 
   29900   -101043.56    -90776.22    249.32903    20724    225693.41   -35.780755    6.0808224    -164.9191    51.496009    432.93805    23.514935    22.169166    1.5685765    434.50662     -4431.37 
   30000   -101005.05   -90777.886    248.35328    20724    225880.97    -21.69953    107.35263   -4.6554608   -167.79575     433.1127     23.51996    22.173903    1.4812475    434.59395   -4427.2662 
   30100   -101008.35   -90763.684    248.77827    20724    225709.86   -18.640057   -21.924978   -402.45543    368.46024    433.15618     23.50987     22.16439    1.4595105    434.61569   -4447.3103 
   30200   -101059.52   -90813.335     248.8152    20724    225732.62   -44.657306    -186.7748   -52.693453    105.49633    433.13763    23.511559    22.165983    1.4687838    434.60642   -4398.3871 
   30300   -101025.43   -90771.343    249.00718    20724     225856.4   -71.944484    28.719391    136.69458   -381.24742    433.57374    23.506173    22.160906    1.2507289    434.82447   -4435.8668 
   30400   -100944.17   -90767.501     247.1271    20724    225764.78   -42.116858   -33.545123    65.642283   -158.44773    433.40571     23.50596    22.160705    1.3347474    434.74045   -4443.8833 
   30500   -100957.74   -90762.504    247.57812    20724    225762.37    13.747502    13.992966   -124.92352    152.17306    433.39873    23.506024    22.160765    1.3382348    434.73697   -4453.8084 
   30600    -100978.9   -90762.105    248.10154    20724    225786.41    49.401187   -55.192209   -11.258405    214.65417    433.47689    23.505156    22.159947    1.2991564    434.77604   -4457.5244 
   30700   -100942.58   -90743.263    247.67714    20724    225836.68   -52.585141   -95.895277    130.16366    -192.0238    433.50762     23.50694    22.161628    1.2837894    434.79141    -4468.939 
   30800   -100970.55    -90757.89    248.00119    20724    225748.08    83.184928    11.142295    266.23402   -27.821531     433.6124    23.499488    22.154603    1.2313994     434.8438   -4465.0898 
   30900   -100809.01   -90728.452    244.79331    20724    225845.87    30.074734    62.803786    29.886486   -2.4660691     433.5717    23.505681    22.160441    1.2517519    434.82345   -4489.6653 
   31000   -100913.15   -90707.761    247.82451    20724    225864.23   -6.4086689    103.47099   -75.982583   -46.714415     433.4931    23.508767    22.163351     1.291051    434.78415    -4509.228 
   31100   -100952.76   -90733.231    248.16791    20724    225836.31   -13.646399   -47.117729    101.06877   -94.890238    433.42779    23.509085     22.16365     1.323705    434.75149   -4487.1583 
   31200   -100957.67   -90701.866    249.04878    20724    225965.57   -67.651682   -95.897888   -431.40219    324.34503    433.37327    23.517291    22.171387    1.3509661    434.72423    -4513.237 
   31300    -100874.7   -90705.436    246.94735    20724    225846.06    49.401108     181.7563   -237.93669    204.38372    433.21943    23.515245    22.169458     1.427885    434.64731   -4519.2118 
   31400    -100866.2   -90634.282    248.46883    20724    225655.21   -27.245949    -32.57805    50.669258   -99.829056    433.35824    23.501543     22.15654    1.3584812    434.71672   -4593.6007 
   31500   -100871.99   -90646.448    248.31403    20724    225617.71    16.945941    107.06143    83.383118   -139.60672    433.29155    23.501398    22.156404    1.3918241    434.68338   -4585.2442 
   31600   -100783.07    -90607.77    247.09385    20724    225650.54    45.193021    156.20145   -25.211576    4.5891942    433.23146    23.504738    22.159552    1.4218695    434.65333   -4624.7569 
   31700   -100890.35   -90611.004    249.62058    20724    225901.17   -21.524745    59.257692   -160.08579    36.253862    433.40925    23.512963    22.167307     1.332975    434.74223   -4612.5472 
   31800   -100877.76   -90626.694    248.93375    20724    225838.92   -96.106848    -185.4523   -257.14324    154.27499    433.53198    23.506395    22.161115    1.2716081    434.80359   -4596.0599 
   31900   -100851.43   -90607.658    248.75656    20724     225836.2      56.6158   -119.59616    409.65001   -120.20644    433.53424    23.506193    22.160924    1.2704823    434.80472   -4623.1643 
   32000   -100784.99   -90612.441    247.02699    20724    225799.03    6.7515363    31.585397    8.2443399   -19.575128     433.3968    23.507985    22.162613    1.3392012      434.736   -4617.8457 
   32100   -100829.34   -90624.337    247.81521    20724    225745.84    64.032641   -79.229837    80.308506    191.01925    433.52663    23.501696    22.156684    1.2742847    434.80092   -4613.9086 
   32200   -100848.85   -90602.116     248.8285    20724    225959.21    -1.104628   -180.44533    -239.3291    416.46055    433.47198    23.514282     22.16855    1.3016087    434.77359   -4624.4502 
   32300   -100796.39   -90589.641    247.85771    20724    225776.63    -7.993408   -103.20552   -128.11837    207.34366    433.48048     23.50455    22.159375    1.2973611    434.77784   -4644.6004 
   32400   -100892.04   -90612.282    249.63041    20724     225774.9   -42.544811   -258.18571    72.684048    57.867226    433.43389    23.505723    22.160481    1.3206573    434.75454   -4623.0989 
   32500   -100836.91   -90608.223    248.39026    20724    225924.98    39.286839    72.351963   -22.895065     68.40362    433.54044    23.510644    22.165121      1.26738    434.80782   -4625.9135 
   32600   -100849.98   -90636.696    248.01621    20724    225544.21    63.777604    17.671838   -121.25119    294.91216    433.30244    23.497274    22.152516    1.3863789    434.68882   -4612.7474 
   32700   -100899.17   -90570.949    250.80731    20724    226197.09   -49.362499   -190.77469   -116.95035    159.63755    433.60483    23.523052    22.176819    1.2351874    434.84001   -4654.8452 
   32800   -100826.08   -90561.926    249.25167    20724    225841.31   -14.740549     65.56638    185.88028   -295.66831    433.60078    23.504655    22.159474     1.237212    434.83799   -4678.9865 
   32900   -100809.85   -90524.827    249.75849    20724    225941.21    75.121588    84.709465    -124.3871     265.0424    433.65234    23.508455    22.163057    1.2114284    434.86377   -4716.7966 
   33000   -100763.76   -90537.528    248.33078    20724    225986.46    75.244307    141.02479   -70.741257    155.44939    433.65384    23.510768    22.165238     1.210682    434.86452   -4704.0021 
   33100    -100822.3   -90532.671    249.87014    20724    226149.37   -2.7807833   -29.138791   -108.54985     129.3463    433.49066    23.523667    22.177399    1.2922709    434.78293   -4700.9704 
   33200   -100787.81   -90533.063    249.02329    20724    225969.09    14.167508    244.96282   -118.91179   -83.548504    433.62993    23.510513    22.164997     1.222636    434.85256   -4709.7939 
   33300   -100721.87   -90504.435    248.11722    20724    225941.08   -11.258458    36.601897   -262.45052    192.07325    433.77133    23.505224     22.16001    1.1519337    434.92327   -4735.2758 
   33400   -100834.22   -90470.874    251.66028    20724     226036.2    29.493642      94.5366   -94.040339    87.984665    433.60144    23.514777    22.169017    1.2368778    434.83832   -4771.0214 
   33500   -100742.14   -90511.118    248.44704    20724    225666.71   -82.143751   -258.50032    87.100399   -75.031333    433.02254     23.51125    22.165691    1.5263275    434.54887   -4736.7324 
   33600   -100776.33   -90525.183    248.93571    20724    225970.62    14.798594    74.022618   -14.179982   -15.446853    433.32237    23.518935    22.172937    1.3764125    434.69879   -4720.6403 
   33700   -100758.83   -90484.175    249.50671    20724    225722.34   0.77045689    151.19655   -439.67853    290.79335    433.27427    23.507315    22.161982    1.4004646    434.67474   -4771.6505 
   33800   -100897.96     -90490.5    252.73165    20724     225959.3   -55.761777    15.820926    100.86784    -283.9741    433.40587     23.51608    22.170245    1.3346645    434.74054   -4756.9225 
   33900    -100736.4     -90496.5    248.66263    20724    225852.55    6.6965875   -15.884599    273.10743   -237.13307    433.52252    23.507361    22.162026    1.2763397    434.79886   -4755.7041 
   34000   -100791.36   -90489.049    250.17816    20724    225899.62    37.976026   -41.086483    180.42495    -25.41039    433.45691     23.51159    22.166012    1.3091434    434.76606   -4765.3034 
   34100   -100718.68   -90475.171    248.75036    20724    226066.93    16.158424    79.869067    97.481444   -128.87524    433.62097    23.515845    22.170024    1.2271161    434.84808   -4774.8485 
   34200   -100705.56   -90479.619    248.32369    20724    225949.65    43.193667   0.98444777    183.61548   -55.018922     433.6162    23.509874    22.164395     1.229501     434.8457   -4775.6792 
   34300    -100716.5    -90440.83    249.53126    20724    226045.25   -42.204325   -63.211443      25.9249   -89.326434    433.79955    23.509877    22.164397    1.1378256    434.93737   -4809.3178 
   34400   -100761.17   -90444.586    250.52471    20724    225909.22    71.704298    146.20923   -79.681779    148.58545    433.60379    23.508107    22.162729     1.235705     434.8395   -4817.1721 
   34500   -100705.04   -90433.193    249.43848    20724    225710.47    2.4681321    47.783301   -283.49505    243.11615    433.49103     23.50082    22.155858    1.2920868    434.78311   -4831.2067 
   34600   -100691.03   -90463.245    248.36844    20724    225787.69   -0.3974919   -218.15008   -104.93395    321.89156    433.64147    23.500762    22.155804    1.2168653    434.85833   -4800.1566 
   34700   -100698.98   -90420.615    249.59677    20724    225716.71   -110.83486   -231.91791   -98.901293    -1.685384    433.41877    23.503103    22.158011    1.3282129    434.74699   -4839.4864 
   34800   -100700.96   -90406.525    249.98701    20724    225533.67    37.363548   -40.200886    50.491319    101.80021    433.40785    23.493868    22.149304    1.3336762    434.74152   -4868.2448 
   34900   -100685.06    -90409.63    249.52534    20724    225782.31   -22.077988    42.193036    4.2041852   -112.63119    433.43206    23.506158    22.160891    1.3215725    434.75363   -4856.9745 
   35000    -100738.1   -90430.536    250.30575    20724    225767.36   -23.536453    10.952014   -51.927463   -29.633909    433.49435    23.503691    22.158565    1.2904252    434.78477   -4838.2712 
   35100   -100657.68    -90376.84    249.65688    20724    225714.68     39.31167    83.814763   -255.59942    289.71966    433.28684    23.506576    22.161285    1.3941778    434.68102     -4896.66 
   35200    -100663.6   -90432.084    248.45914    20724    225667.69    5.8444138    143.14736     100.6636   -226.27772    433.34731    23.502488    22.157432    1.3639432    434.71126   -4841.9404 
   35300   -100667.35   -90396.902    249.40446    20724    225723.63     80.74741   -12.180318    246.16636    8.2561885    433.31387    23.506309    22.161033    1.3806655    434.69453   -4881.5077 
   35400   -100746.02   -90388.687    251.51428    20724    225536.95   -0.6366304    127.18847   -203.84062    74.742258    432.82969    23.509725    22.164254    1.6227565    434.45244   -4890.2425 
   35500   -100717.27   -90382.908    250.95659    20724     225485.3   -12.574825   -70.899321   -35.137703    68.312548    432.78804    23.508164    22.162782      1.64358    434.43162   -4900.2306 
   35600   -100754.47   -90375.008    252.05174    20724    225632.54   -114.81418   -222.55387  -0.50389473   -121.38479    433.03132    23.509231    22.163788    1.5219398    434.55326   -4900.9954 
   35700   -100640.47   -90359.347     249.6636    20724    225739.38    10.620203    80.065636    200.91821   -249.12324    433.18781    23.510549     22.16503    1.4436937    434.63151   -4918.6677 
   35800   -100592.51   -90326.826    249.28882    20724    225640.56   -3.3619766   -29.820658    119.71936    -99.98463    433.06879    23.508632    22.163223     1.503206    434.57199   -4953.8466 
   35900   -100663.29   -90311.451    251.38092    20724    225734.42    15.909848     3.366309   -168.72762    213.09085    433.15579    23.511159    22.165606    1.4597037     434.6155   -4969.3947 
   36000   -100605.41   -90273.927    250.88664    20724    225974.82    55.388617     34.73677   -3.9995265    135.42861    433.23055    23.521646    22.175493    1.4223271    434.65287   -5001.8268 
[...]
  491300   -93516.146   -80757.867    309.81818    20724    221709.83    44.998792   -140.63389    234.54387    41.086402    423.68228    23.559688    22.211358      6.19646    429.87874   -22156.914 
  491400   -93626.428   -80713.975    313.56208    20724    221721.14   -34.685147    36.413293    151.99261   -292.46134    423.17815    23.574319    22.225151    6.4485266    429.62667   -22199.168 
  491500    -93623.33    -80790.95    311.61762    20724    221640.16    105.19816    148.36683    32.283808    134.94386    423.08729    23.572544    22.223478    6.4939541    429.58125   -22137.423 
  491600   -93503.516   -80735.069    310.06511    20724    221509.47   -10.303213     -229.734    225.73347   -26.909107    422.77894    23.574185    22.225025    6.6481294    429.42707   -22190.874 
  491700   -93633.239   -80729.836    313.34233    20724    221735.57    6.8035528   -46.787983    -85.56734    152.76598     422.8147    23.585216    22.235425    6.6302488    429.44495   -22191.807 
  491800   -93661.753   -80693.866    314.90824    20724     222005.8   -105.77406   -152.85793    -4.471104   -159.99314    423.50649    23.580301    22.230791    6.2843573    429.79084   -22215.584 
  491900   -93548.578   -80713.824    311.67528    20724     221832.2    10.360191    21.009695   -26.534777    36.605656    422.88928    23.588275    22.238308    6.5929616    429.48224   -22207.019 
  492000   -93420.788   -80732.878    308.10936    20724    221801.76    110.97399    75.981537    95.059663    161.88076    422.98296    23.584044     22.23432     6.546121    429.52908   -22194.664 
  492100   -93337.521   -80727.607    306.21534    20724    221767.53    90.139419    193.75646   -17.089539    93.751339    423.06868    23.579835    22.230351    6.5032591    429.57194   -22202.866 
  492200   -93579.192   -80733.477    311.94144    20724    221442.31    10.900133    121.31612    251.50448   -340.12019    422.77623    23.570686    22.221727    6.6494844    429.42572    -22208.18 
  492300   -93401.619   -80695.857    308.54288    20724    221858.73    126.85651     136.0889    25.248981    219.23163     423.0729    23.584565    22.234811    6.5011477    429.57405   -22235.982 
  492400   -93446.528   -80734.444     308.6964    20724    221879.64    27.188849    5.5360745   -61.016233    137.04671    423.16106    23.583219    22.233542    6.4570678    429.61813   -22192.303 
  492500   -93488.297   -80727.995    309.86732    20724    221776.98    45.796643    86.389873     23.16754    27.832517    422.88881    23.585352    22.235552    6.5931939    429.48201   -22205.859 
  492600    -93465.58   -80767.005    308.36835    20724    221622.85    -29.08645     38.15293   -123.99923   -1.4130519    423.06144    23.572343    22.223289    6.5068795    429.56832   -22171.912 
  492700   -93540.679   -80747.335    310.66969    20724    221762.93    64.134738    21.125601    23.923957    147.35466    423.07591    23.579389    22.229931    6.4996429    429.57556   -22192.934 
  492800   -93497.981   -80759.157    309.34575    20724    221497.67    108.46527    164.97885    149.74714    10.669814     423.0187    23.566876    22.218134      6.52825    429.54695   -22193.473 
  492900   -93576.597   -80750.704    311.46011    20724    221404.14    24.950453   -183.50804   -49.412862    307.77226    423.14758    23.558311     22.21006    6.4638099    429.61139   -22202.987 
  493000   -93328.527   -80728.885    305.96589    20724    221645.93    64.317977    72.257392    284.71713   -164.02059    423.01395    23.574894    22.225693    6.5306253    429.54457    -22217.68 
  493100   -93671.776   -80758.286    313.58728    20724    221278.48   -209.22614   -207.57958   -347.76261   -72.336218    422.66496    23.565067    22.216429    6.7051187    429.37008   -22195.907 
  493200   -93589.856   -80719.206    312.54696    20724    221301.69    -7.867826    19.652085    72.255794   -115.51136    422.53122    23.570032     22.22111    6.7719885    429.30321   -22242.667 
  493300    -93463.59   -80715.916    309.56065    20724    221428.86     10.93747   -27.851841   -104.78457    165.44882    422.42261    23.579834    22.230351    6.8262933    429.24891   -22240.934 
  493400   -93468.601   -80669.997    310.79743    20724    221485.19   -63.234838     6.988185   -55.688844   -141.00385    422.03947    23.593535    22.243268    7.0178634    429.05734   -22286.498 
  493500   -93428.859   -80687.976    309.39573    20724    221455.76    42.377409   -115.75221    59.677175    183.20726     422.3116    23.584366    22.234623    6.8817989     429.1934   -22272.685 
  493600   -93412.908    -80680.79     309.1829    20724     221689.9   -114.79797   -189.10236    175.46123   -330.75277     423.2017    23.572002    22.222967    6.4367501    429.63845       -22270 
  493700    -93364.11   -80659.449    308.51614    20724    221701.44    96.310725    276.98804   -74.584457    86.528591    423.37009    23.567927    22.219125    6.3525564    429.72264   -22300.266 
  493800   -93365.367    -80661.26    308.50267    20724     221463.3    29.241895   -69.888848   -55.986622    213.60116    423.29521    23.557349    22.209153    6.3899942    429.68521   -22307.966 
  493900   -93406.559   -80637.379     310.0829    20724    221200.86   -46.656553    120.25526   -302.21792    41.993001     423.2175    23.545548    22.198027    6.4288484    429.64635   -22342.665 
  494000   -93558.771   -80688.296    312.54271    20724    221036.67   -27.259716   -71.195821    169.30136   -179.88469    422.94355     23.54443    22.196973    6.5658234    429.50938   -22302.983 
  494100   -93303.407   -80655.984     307.1262    20724    221184.77    80.208407   -95.042254   -18.066962    353.73444    423.20316    23.545091    22.197596    6.4360201    429.63918    -22332.55 
  494200   -93516.003   -80687.505    311.52337    20724    221007.64    47.445129    66.686907    154.34762   -78.699138    422.96001    23.542425    22.195083     6.557595    429.51761    -22310.55 
  494300   -93348.086   -80654.486    308.24752    20724    221357.26    9.2106851   -95.507399   -257.90529    381.04474    423.19374    23.554532    22.206497    6.4407285    429.63447    -22328.21 
  494400   -93467.498   -80689.922     310.2868    20724    221282.65   -3.8918233     27.09976    85.144243   -123.91947    423.33348    23.546675    22.199089    6.3708607    429.70434   -22299.734 
  494500   -93454.786   -80663.687    310.61517    20724    221426.69    31.592859   -102.64553   -120.09665    317.52076    423.25723    23.556459    22.208314    6.4089849    429.66622   -22322.219 
  494600   -93470.839   -80672.146    310.79958    20724    221388.56   -78.206527   -120.07463    70.483759   -185.02871    423.04368    23.560375    22.212005    6.5157598    429.55944    -22310.71 
  494700   -93457.887   -80674.526    310.42726    20724    221336.69   -171.70266   -251.36023   -137.66985   -126.07792    422.98109    23.559358    22.211046     6.547054    429.52815   -22307.389 
  494800    -93577.43   -80666.243    313.53137    20724    221442.34   -43.609001    155.22229   -283.56562   -2.4836782    422.98318    23.564921    22.216291    6.5460078    429.52919   -22321.083 
  494900   -93330.907   -80703.476    306.64071    20724    221331.66    135.92997    339.72811   -100.04143    168.10323    423.19385    23.553167     22.20521    6.4406741    429.63453   -22294.202 
  495000   -93398.759   -80657.547    309.40373    20724    220977.37   -122.44577   -94.976158   -190.60743   -81.753735    423.17625    23.534798    22.187892    6.4494769    429.62572   -22343.586 
  495100   -93438.347   -80649.563    310.55896    20724    221249.12    12.235114    74.886689   -93.043676     54.86233    422.62166    23.564711    22.216093    6.7267676    429.34843    -22352.16 
  495200   -93360.015   -80659.187    308.42305    20724    221360.02      83.8475   -68.148424    357.40235   -37.711429      422.467     23.57493    22.225728     6.804101     429.2711   -22341.684 
  495300   -93380.756   -80648.735    309.18056    20724    221111.44    87.987732    99.627351    109.75505    54.580795    421.86234    23.578569    22.229158    7.1064324    428.96877    -22361.43 
  495400   -93501.053   -80681.825    311.29826    20724    221194.01    5.0316913   -135.04267   -0.8773602    151.01511    422.09464    23.576481    22.227189    6.9902801    429.08492   -22324.933 
  495500   -93564.946   -80693.935    312.55573    20724    221281.83   -42.322197    108.05271   -292.09929    57.079992    421.92372    23.585936    22.236104    7.0757415    428.99946   -22311.807 
  495600   -93548.497   -80669.803    312.74231    20724    221047.56    53.631266    153.83683     295.4137   -288.35673     422.2341    23.564782     22.21616    6.9205516    429.15465   -22348.437 
  495700   -93383.666   -80662.541    308.91595    20724    221141.21    88.309812    33.273222    1.6478492    230.00837    422.20514    23.570581    22.221628    6.9350317    429.14017   -22354.444 
  495800   -93460.294   -80647.748    311.13599    20724     221314.5    113.82019   -50.430806    51.889396    340.00197    422.00507    23.585404    22.235602    7.0350671    429.04013   -22364.925 
  495900   -93501.258   -80649.718    312.08289    20724    221190.88   -36.204391   -271.37736   -54.225143    216.98933    421.61471    23.589729    22.239679    7.2302432    428.84496   -22365.442 
  496000   -93464.717   -80628.409      311.713    20724    221140.48    -52.14852   -36.935386    163.31385   -282.82402    421.59549    23.587578    22.237652    7.2398531    428.83535   -22389.229 
  496100   -93520.104   -80661.848    312.24599    20724    221107.36   -127.38839   -200.48845    39.746292     -221.423    421.61708    23.585208    22.235417    7.2290619    428.84614   -22355.488 
  496200    -93485.16   -80673.933    311.10395    20724    221250.35    42.457809    30.508116      143.838   -46.972685    421.98145    23.582646    22.233001    7.0468771    429.02832   -22345.989 
  496300   -93499.514   -80661.582    311.75245    20724    221412.29    23.512904    104.54252   -41.348772     7.344963    422.56291    23.575037    22.225829    6.7561453    429.31905   -22357.225 
  496400   -93396.399   -80657.931    309.33712    20724    221204.72   -65.357099    85.381716   -52.096994   -229.35602    422.55253    23.564274    22.215681    6.7613348    429.31387   -22362.024 
  496500   -93476.584   -80644.229    311.61704    20724    221310.35   -38.979493    64.367728   -347.80555    166.49934    422.44928    23.572779      22.2237    6.8129588    429.26224   -22374.608 
  496600   -93499.292    -80661.64    311.74564    20724    221289.39    63.719939   -79.232666    153.90975    116.48273    422.25455    23.577097    22.227771    6.9103233    429.16488   -22366.867 
  496700   -93420.127   -80624.161    310.73338    20724    221496.31   -54.873627   -111.84137   -19.267459   -33.512051    421.73836    23.602549    22.251766    7.1684214    428.90678   -22392.318 
  496800   -93364.895   -80606.313    309.82554    20724     221019.6   -11.037985    149.69556    82.868114   -265.67763    421.77794     23.57603    22.226764    7.1486312    428.92657   -22432.687 
  496900   -93485.947   -80581.116      313.377    20724    220955.44    30.911275     202.8966    104.08963    -214.2524    422.20389    23.560714    22.212325    6.9356564    429.13954   -22463.876 
  497000   -93298.599   -80600.828    308.34882    20724    220798.25   -5.4665192   -73.867957    175.64109   -118.17269    421.87432    23.561529    22.213094    7.1004378    428.97476   -22448.539 
  497100   -93435.075   -80579.678    312.17656    20724    221178.54   -68.488117    89.163114   -139.25755   -155.36991    422.28275    23.570405    22.221461    6.8962232    429.17898   -22456.936 
  497200   -93572.936   -80585.103    315.39261    20724    221373.99   -2.1623852    115.95198   -172.85888    50.419741    422.22261    23.582496     22.23286    6.9262939    429.14891   -22449.714 
  497300   -93618.109    -80641.93    315.10961    20724    221058.31   -99.581838   -192.52052   -215.58484    109.35985    422.26233    23.564567    22.215958    6.9064332    429.16877   -22403.095 
  497400     -93284.6   -80656.973    306.64546    20724    220984.93   -31.788101    50.416228   -258.70883     112.9283    422.00018    23.567973    22.219168    7.0375103    429.03769   -22394.424 
  497500    -93524.71   -80656.462    312.48864    20724    221036.47     85.62103    -43.26132     201.5127    98.611712    421.98809    23.571058    22.222077    7.0435534    429.03165   -22403.143 
  497600   -93413.341   -80609.244    310.93083    20724    220981.78    9.0389757    -91.47565   -93.906784    212.49936    421.92667    23.569857    22.220945    7.0742642    429.00094   -22447.916 
  497700    -93454.61   -80620.525    311.65905    20724     221173.5   -19.844528    -100.3538   -161.97255    202.79276    422.04024    23.576907    22.227591    7.0174795    429.05772   -22431.227 
  497800   -93519.824   -80648.197    312.57069    20724    220976.66   -7.5185495    37.386934    186.79653   -246.73912    421.65648    23.577135    22.227806    7.2093612    428.86584   -22414.752 
  497900   -93487.655   -80661.482     311.4669    20724    221078.03    -96.09349    18.842207    89.903133   -397.02581    421.94857    23.574378    22.225207     7.063315    429.01189   -22394.267 
  498000   -93467.446   -80647.167    311.32377    20724    221445.95    61.642561    150.36792    15.386263    19.173504    422.13819    23.588687    22.238697     6.968503     429.1067   -22403.802 
  498100   -93293.838   -80663.819    306.70356    20724    221223.71    25.129579    12.793625   -190.63215    253.22726    422.11124      23.5776    22.228245    6.9819801    429.09322   -22394.795 
  498200   -93396.148   -80669.488    309.05037    20724    221209.96    169.35415    175.50146    529.48076   -196.91976    422.00796    23.579752    22.230273    7.0336181    429.04158   -22397.529 
  498300   -93534.294    -80677.19    312.21802    20724    221351.64     3.273051   -177.29325    102.21272    84.899679    422.05691    23.585934    22.236102    7.0091441    429.06606   -22379.581 
  498400   -93495.994   -80694.361    310.87097    20724    221009.46    13.867491   -108.10293    137.45355    12.251852    421.54828    23.581911    22.232308    7.2634621    428.81174   -22377.176 
  498500   -93560.435   -80690.783    312.52272    20724    221366.86      43.9397    45.497388    78.747953    7.5737576    421.60098    23.599495    22.248886    7.2371083    428.83809   -22373.665 
  498600   -93480.711   -80647.753    311.63167    20724    220990.11   -91.861943    114.95769   -182.03908   -208.50443     421.6538    23.577927    22.228553    7.2106981     428.8645   -22424.015 
  498700   -93472.195   -80625.166    311.97337    20724    221237.88   -152.54687   -434.49258   -111.16309    88.015065    421.96943    23.582317    22.232691    7.0528871    429.02231   -22436.034 
  498800   -93479.592   -80682.682    310.75629    20724    220980.58   -88.146102    41.482436    -340.2842    34.363456    421.93117    23.569668    22.220766    7.0720151    429.00318   -22394.883 
  498900   -93389.244   -80638.451    309.63639    20724     221089.6   -52.317743    46.148595    -232.4374    29.335572     422.0078    23.573341    22.224229    7.0337011     429.0415   -22436.826 
  499000   -93555.639   -80634.494    313.77319    20724    221079.14    20.590469    258.72162   -234.92819    37.977977    421.91324    23.575424    22.226193     7.080978    428.99422   -22448.348 
  499100   -93525.144   -80612.809    313.55923    20724    221279.57    92.764485    127.49076    210.50993   -59.707231     422.0503    23.582279    22.232656    7.0124488    429.06275   -22466.869 
  499200   -93477.785    -80656.62    311.34528    20724    220993.08    25.163028    202.14601   -10.898646   -115.75828    422.12429    23.564942    22.216311     6.975456    429.09974   -22433.315 
  499300   -93500.439   -80631.196    312.51282    20724    221216.43    17.021885    68.497422   -187.14515    169.71338    422.56801    23.564466    22.215862    6.7535945    429.32161   -22452.299 
  499400   -93440.683   -80636.579    310.93099    20724    221396.53   -42.718007    49.352269   -162.21193    -15.29436    422.87535    23.565488    22.216826     6.599924    429.47528   -22438.643 
  499500   -93627.246   -80636.213     315.4703    20724    221228.99    -95.30826   -279.50365   -95.066973    88.645849    422.66898     23.56232    22.213839    6.7031119    429.37209   -22445.288 
  499600   -93459.427   -80649.071    311.08282    20724    221328.26    77.642221    270.09671    -32.70701   -4.4630425    422.78513    23.564368     22.21577    6.6450335    429.43017   -22438.443 
  499700   -93369.453   -80603.674    310.00032    20724    221402.94    120.03691    410.40183    280.51905   -330.81014    423.18965    23.557076    22.208895     6.442773    429.63243   -22482.742 
  499800   -93319.067   -80649.098    307.67369    20724    221568.39    85.154425    250.44647    101.01505   -95.998248    423.57765    23.555081    22.207014    6.2487732    429.82643   -22434.244 
  499900   -93481.549   -80597.056    312.88312    20724    221481.24    6.0828844   -8.0596791    5.4324079    20.875925    423.31024    23.557885    22.209658     6.382481    429.69272   -22488.207 
  500000   -93439.197   -80596.609    311.86553    20724     221389.3   -97.215776   -292.65134   -200.53565    201.53966    423.30402    23.553168    22.205211     6.385589    429.68961   -22487.347 
Loop time of 52423.3 on 32 procs for 500000 steps with 20724 atoms

Performance: 1.648 ns/day, 14.562 hours/ns, 9.538 timesteps/s
97.3% CPU use with 32 MPI tasks x no OpenMP threads

MPI task timing breakdown:
Section |  min time  |  avg time  |  max time  |%varavg| %total
---------------------------------------------------------------
Pair    | 6419.8     | 9218.6     | 13349      |2562.5 | 17.58
Bond    | 0.36552    | 0.46216    | 0.5627     |   8.5 |  0.00
Kspace  | 8033.1     | 12179      | 14992      |2242.1 | 23.23
Neigh   | 8426.7     | 10524      | 12210      |1440.0 | 20.07
Comm    | 458.5      | 3809.5     | 7733.4     |4479.4 |  7.27
Output  | 3.9962     | 46.288     | 75.191     | 373.0 |  0.09
Modify  | 13011      | 16607      | 21884      |2456.0 | 31.68
Other   |            | 38.97      |            |       |  0.07

Nlocal:    647.625 ave 696 max 604 min
Histogram: 3 0 7 8 2 0 2 4 2 4
Nghost:    7468.81 ave 7818 max 7038 min
Histogram: 2 0 6 3 5 3 1 4 2 6
Neighs:    237858 ave 272419 max 214146 min
Histogram: 4 6 9 1 0 0 2 5 1 4
FullNghs:  475722 ave 548076 max 427697 min
Histogram: 4 8 7 1 0 0 3 5 1 3

Total # of neighbors = 15223107
Ave neighs/atom = 734.564
Ave special neighs/atom = 2
Neighbor list builds = 500000
Dangerous builds not checked
write_data production.R1
PPPM initialization ...
  extracting TIP4P info from pair style
WARNING: Using 12-bit tables for long-range coulomb (../kspace.cpp:316)
  G vector (1/distance) = 0.34588
  grid = 400 48 48
  stencil order = 5
  estimated absolute RMS force accuracy = 0.000402377
  estimated relative force accuracy = 1.21175e-06
  using double precision FFTs
  3d grid and FFT values/proc = 67260 38400
write_restart restartproduction.R1
PPPM initialization ...
  extracting TIP4P info from pair style
WARNING: Using 12-bit tables for long-range coulomb (../kspace.cpp:316)
  G vector (1/distance) = 0.34588
  grid = 400 48 48
  stencil order = 5
  estimated absolute RMS force accuracy = 0.000402377
  estimated relative force accuracy = 1.21175e-06
  using double precision FFTs
  3d grid and FFT values/proc = 67260 38400
Total wall time: 14:33:43
