LAMMPS (30 Jul 2016)
# Sets up LAMMPS simulation for transient melting of ice: TIP4P/Ice
# Ensure cold thermostats do not move
# Thinbox: 16x1x1
# Defects
# Order param l=2

#### setting MD parameters ####
units real
boundary p p p
atom_style full

# read ice box in restart file
### read the equilibrated NPT restart file

read_restart restart.state
  orthogonal box = (0.354457 0.019127 0.0180323) to (435.721 23.5121 22.1665)
  32 by 1 by 1 MPI processor grid
  20736 atoms
  13824 bonds
  6912 angles
  2 = max # of 1-2 neighbors
  1 = max # of 1-3 neighbors
  1 = max # of 1-4 neighbors
  2 = max # of special neighbors


#### force field definition ####
pair_style      lj/cut/tip4p/long 2 1 1 1 0.1577 10.0
pair_modify	tail yes

kspace_style	pppm/tip4p 1.0e-6

bond_style	harmonic
angle_style	harmonic
dihedral_style	none
improper_style	none

bond_coeff	1 450.0 0.9572
angle_coeff	1 55.0 104.52


# reset pair coeff
pair_coeff	* * 0.0 0.0

#OO
pair_coeff	2 2 0.21085 3.1668
#OH
pair_coeff	* 1 0.0000 0.0000

neighbor        2.0 bin
neigh_modify    every 1 delay 1 check no

timestep	2.0
fix		constraints all shake 0.000001 20 0 b 1 a 1
  0 = # of size 2 clusters
  0 = # of size 3 clusters
  0 = # of size 4 clusters
  6912 = # of frozen angles

group water type 1 2
20736 atoms in group water

#*********** SIMULATION PARAMETER TO ADJUST ****************
#Box dimensions
variable lx equal lx
variable ly equal ly
variable lz equal lz

### Temperature of the hot and cold regions ####
variable thi equal 375
variable tlo equal 215
variable runpressure equal 0.986923


# Configuration equilibrated in density and temperature

# Define dx here

variable lx equal lx
variable ly equal ly
variable lz equal lz

variable xlo equal xlo
variable xhi equal xhi

variable boxcentre equal ${xlo}+(${xhi}-${xlo})/2
variable boxcentre equal 0.35445675987674+(${xhi}-${xlo})/2
variable boxcentre equal 0.35445675987674+(435.72074324012-${xlo})/2
variable boxcentre equal 0.35445675987674+(435.72074324012-0.35445675987674)/2

variable dx equal 2.0

#### ADD IN DEFECTS AT THE CENTRE OF THE HOT THERMOSTAT #####
variable y1 equal ${ly}/2.0
variable y1 equal 23.4929460799975/2.0
variable z1 equal ${lz}/2.0
variable z1 equal 22.1484353671581/2.0

region kill1 sphere ${boxcentre} ${y1} ${z1} 3
region kill1 sphere 218.037599999998 ${y1} ${z1} 3
region kill1 sphere 218.037599999998 11.7464730399987 ${z1} 3
region kill1 sphere 218.037599999998 11.7464730399987 11.0742176835791 3
delete_atoms region kill1 compress no bond yes mol yes
Deleted 12 atoms, new total = 20724
Deleted 8 bonds, new total = 13816
Deleted 4 angles, new total = 6908
############


variable thip equal ${thi}*2.0/3.0
variable thip equal 375*2.0/3.0
variable tlop equal ${tlo}*2.0/3.0
variable tlop equal 215*2.0/3.0
variable hbl equal ${boxcentre}-${dx}
variable hbl equal 218.037599999998-${dx}
variable hbl equal 218.037599999998-2
variable hbh equal ${boxcentre}+${dx}
variable hbh equal 218.037599999998+${dx}
variable hbh equal 218.037599999998+2

#***************************************************
## EQUILIBRATION PERIOD - to reach the steady state ###
#run 0

#reset the timestep to start your production run
reset_timestep 0

# define a group to perform averages
#group s1 type 1
###*** SYSTEM THERMOSTATTING: HOT and COLD regions ***###

fix NVE all nve
fix PRESS all press/berendsen aniso ${runpressure} ${runpressure} 500000 couple yz
fix PRESS all press/berendsen aniso 0.986923 ${runpressure} 500000 couple yz
fix PRESS all press/berendsen aniso 0.986923 0.986923 500000 couple yz


### Apply THERMOSTATS ###

#set up the "hot region" in the middle of the box
region hot block ${hbl} ${hbh} 0 ${ly} 0 ${lz} units box
region hot block 216.037599999998 ${hbh} 0 ${ly} 0 ${lz} units box
region hot block 216.037599999998 220.037599999998 0 ${ly} 0 ${lz} units box
region hot block 216.037599999998 220.037599999998 0 23.4929460799975 0 ${lz} units box
region hot block 216.037599999998 220.037599999998 0 23.4929460799975 0 22.1484353671581 units box


#set up the "cold region" at the left end of the box
#region cold block ${cbl} ${cbh} 0 ${ly} 0 ${lz} units box

#set up the "cold region" at the right end of the box
#region cold2 block ${h2bl} ${xhi} 0 ${ly} 0 ${lz} units box


#Cold regions  unification
#region cold union 2 cold1 cold2 units box

#Create group of cold molecules
####group cool_ice region cold
####group cool_ice include molecule

####compute cold_temp cool_ice temp
####fix cold_rescale water temp/rescale 1 ${tlo} ${tlo} 0.0001 1.0
####fix_modify cold_rescale temp cold_temp

#this calculates the temperature using only the atoms in the "hot region"
#compute hot_temp all temp/region hot

# calculate the temperature using only WATER in the "hot region"
compute hot_temp water temp/region hot

#this calculates the temperature using only WATER in the "cold region"
#compute cold_temp water temp/region cold


#set up a basic velocity rescale for the hot region WATER with thip
fix hot_rescale water temp/rescale 1 ${thip} ${thip} 1.0 1.0
fix hot_rescale water temp/rescale 1 250 ${thip} 1.0 1.0
fix hot_rescale water temp/rescale 1 250 250 1.0 1.0
#change the thermostat to only act on the "hot region"
#this is done by passing it the "hot temp" compute that we defined above
fix_modify hot_rescale temp hot_temp

#set up a basic velocity rescale for the cold region
#fix cold_rescale water temp/rescale 1 ${tlop} ${tlop} 1.0 1.0
#change the thermostat to only act on the "cold region"
#this is done by passing it the "cold temp" compute that we defined above
#fix_modify cold_rescale temp cold_temp

### Ensure MOMENTUM CONSERVATION ###

#ensure that linear momentum is conserved despite the "thermostatting" by velocity rescaling
fix cons_mom all momentum 1 linear 1 1 1


thermo 100
thermo_style custom step pe etotal temp atoms vol press pxx pyy pzz lx ly lz xlo xhi  f_hot_rescale

group ox type 2
6908 atoms in group ox
group hy type 1
13816 atoms in group hy
compute KE all ke/atom
variable TEMP atom c_KE*4186.8/(1.3806488*6.02214129)

compute cc1 all chunk/atom bin/1d x center 2 units box
#fix TPROFILE all ave/chunk 1 500 500 cc1 v_TEMP density/number file temp.dat
fix TPROFILEox ox ave/chunk 1 500 500 cc1 v_TEMP density/number file temp-ox.dat
fix TPROFILEhy hy ave/chunk 1 500 500 cc1 v_TEMP density/number file temp-hy.dat

compute orderparam ox orientorder/atom degrees 1 2 nnn 4 cutoff 3.5
compute cc2 ox chunk/atom bin/1d x center 2 units box
#fix ORDERPARAM all ave/chunk 1 500 500 cc2 c_orderparam[1] file order-param.dat
fix ORDERPARAM all ave/chunk 1 500 500 cc2 c_orderparam[1] file order-param.dat

restart 50000 config.restart

run 500000
PPPM initialization ...
  extracting TIP4P info from pair style
WARNING: Using 12-bit tables for long-range coulomb (../kspace.cpp:316)
  G vector (1/distance) = 0.345579
  grid = 405 48 48
  stencil order = 5
  estimated absolute RMS force accuracy = 0.000406381
  estimated relative force accuracy = 1.2238e-06
  using double precision FFTs
  3d grid and FFT values/proc = 67260 38880
Neighbor list info ...
  2 neighbor list requests
  update every 1 steps, delay 1 steps, check no
  max neighbors/atom: 2000, page size: 100000
  master list distance cutoff = 12.3154
  ghost atom cutoff = 12.3154
  binsize = 6.1577 -> bins = 71 4 4
Memory usage per processor = 12.7832 Mbytes
Step PotEng TotEng Temp Atoms Volume Press Pxx Pyy Pzz Lx Ly Lz Xlo Xhi hot_resc 
       0   -103883.36   -95026.312    215.08177    20724    226535.01   -134.23863    -137.7852   -98.281142   -166.64954    435.36629    23.492946    22.148435   0.35445676    435.72074            0 
     100   -103688.76   -94724.433    217.68703    20724    226291.14   -50.524446    94.170463   -23.741484   -222.00232    435.29333    23.482265    22.138366   0.39093606    435.68426    -304.7322 
     200   -103657.18   -94700.227    217.50792    20724    226306.72   -41.476916   -65.183411    57.745802   -116.99314    435.03165    23.490135    22.145785   0.52177431    435.55343   -329.08403 
     300   -103543.01   -94692.669    214.91903    20724    226381.95     89.70087    72.792051   -6.1793044    202.48986    434.97869    23.495469    22.150814   0.54825332    435.52695   -340.71984 
     400   -103614.91   -94638.003    217.99255    20724    226246.59    43.410662    132.52134    159.85495    -162.1443    434.91487    23.490167    22.145816   0.58016503    435.49503   -397.75162 
     500   -103588.36   -94590.635    218.49791    20724    226289.59   -5.9641224    60.732375    48.010922   -126.63566    435.15272    23.485978    22.141866   0.46124164    435.61396   -443.42166 
     600      -103610    -94546.91    220.08536    20724    226328.76   -33.578292   -94.868489   -52.276121    46.409735    435.08797    23.489758     22.14543   0.49361411    435.58159   -486.62317 
     700   -103566.22   -94517.255    219.74243    20724    226445.22   -9.6999618    20.819156    58.002531   -107.92157    434.95528    23.499385    22.154505   0.55995823    435.51524    -514.4191 
     800   -103489.84   -94465.591    219.14213    20724    226331.78    39.287844    205.87119   -110.64997    22.642313    435.24026    23.485805    22.141703   0.41747165    435.65773   -571.69047 
     900   -103492.27   -94439.518    219.83435    20724    226511.74    -21.99471   -114.28987   -265.13217    313.43791    435.05883    23.500039    22.155122   0.50818589    435.56701    -592.2827 
    1000   -103402.77   -94421.924    218.08816    20724     226301.3     9.493524    12.265663   -26.760886    42.975795    435.07724    23.488623     22.14436   0.49898085    435.57622   -616.34145 
    1100   -103511.87   -94407.231    221.09435    20724    226380.89   -116.77594   -173.43026   -61.043056   -115.85451    435.14598    23.490897    22.146504   0.46460945    435.61059    -622.9257 
    1200   -103453.37   -94366.022    220.67446    20724     226380.6    47.983221   -137.78078    33.221409    248.50904    435.26477    23.487677    22.143468   0.40521699    435.66998   -676.39521 
    1300   -103360.26   -94300.139    220.01322    20724    226411.03   -15.228865   -40.871485   -99.348752    94.533643    435.01747    23.495931    22.151249   0.52886563    435.54633   -736.74114 
    1400   -103340.17   -94274.996    220.13587    20724    226365.48    61.733353   -4.3935667   -76.800938    266.39456    435.07605    23.491985     22.14753   0.49957482    435.57563   -768.63093 
    1500   -103385.16    -94223.79    222.47182    20724    226419.24    62.417513   -42.689794    132.79871    97.143621    435.23823    23.490397    22.146032   0.41848614    435.65671   -819.81065 
    1600   -103280.09   -94197.511    220.55871    20724    226526.61    16.604902   -41.685732   -197.86305    289.36349    435.21752    23.496525     22.15181   0.42884028    435.64636   -840.57877 
    1700   -103326.48    -94171.74    222.31085    20724     226422.5    86.055233   -77.122453    104.44815    230.84001    435.04378    23.495815     22.15114   0.51570904    435.55949   -874.64291 
    1800   -103255.55   -94139.939    221.36072    20724    226421.55   -42.915519    3.2232048   -130.29812   -1.6716415     435.1844     23.49197    22.147515   0.44539855     435.6298    -901.2561 
    1900   -103287.93   -94088.058    223.40687    20724    226555.34    24.024018    18.393334    197.52558   -143.84686    435.03296    23.502999    22.157913   0.52112069    435.55408   -953.94123 
    2000   -103246.81   -94121.232    221.60285    20724     226475.6   -36.240794   -30.449165   -35.097606   -43.175612    435.25554    23.492854    22.148348    0.4098321    435.66537   -920.64858 
    2100   -103385.87   -94130.262    224.76045    20724    226446.88   -23.347853   -49.302467   -173.20137    152.46028    435.33952    23.489098    22.144807   0.36783827    435.70736   -913.89544 
    2200   -103322.51   -94061.893     224.8819    20724    226438.44   -89.520532   -5.4073538   -58.583856   -204.57039    435.20139    23.492387    22.147909   0.43690465     435.6383   -981.21756 
    2300   -103336.76   -94024.073    226.14636    20724    226471.95   -12.417572   -118.23937   -298.57402    379.56067    435.38601    23.489144    22.144851   0.34459355    435.73061    -1021.517 
    2400   -103211.22   -93962.507    224.59296    20724    226495.08    25.873331    68.880314   -105.59824    114.33792    435.27503    23.493338    22.148804   0.40008435    435.67512   -1084.9252 
    2500   -103271.98   -93973.172     225.8095    20724    226603.76    10.753468   -81.964841    10.678825    103.54642    435.37799    23.496195    22.151498   0.34860298     435.7266    -1072.532 
    2600   -103235.86   -94000.023    224.28027    20724    226534.16    27.311242   -293.74197    84.080388    291.59531    435.41734    23.491525    22.147096   0.32893185    435.74627   -1049.5582 
    2700   -103193.59   -93963.354    224.14418    20724     226577.6    6.8205847    171.51404    13.318431   -164.37072    435.31189    23.496622    22.151901   0.38165645    435.69354   -1086.5014 
    2800   -103232.61   -93936.333    225.74808    20724    226583.92    22.059389    105.06915   -104.89202    66.001033    435.49608     23.49198    22.147525   0.28956236    435.78564   -1113.6605 
    2900   -103149.71     -93894.8    224.74351    20724    226574.75    -40.86036   -163.12093   -83.234161    123.77401    435.39479    23.494237    22.149653   0.34020365      435.735   -1153.4123 
    3000   -103279.27   -93894.826     227.8889    20724     226751.7    30.340997   -128.96308    226.28061   -6.2945352    435.43964    23.502199    22.157159   0.31777766    435.75742   -1155.3487 
    3100   -103250.24   -93889.954    227.30237    20724    226491.55   -51.064788   -67.214831    36.076486   -122.05602    435.31177    23.492163    22.147697   0.38171718    435.69348   -1164.4862 
    3200   -103125.95   -93872.706    224.70305    20724    226654.05   -14.454775   -50.790394    -31.88863    39.314701    435.46133    23.496553    22.151836   0.30693474    435.76827   -1178.5411 
    3300   -103256.26   -93897.638    227.26203    20724    226641.29    -49.88596   -24.962672    65.779479   -190.47469    435.50119    23.494816    22.150199   0.28700315     435.7882    -1152.741 
    3400   -103256.56   -93855.864    228.28359    20724    226647.21    10.974395    124.80783    95.627251    -187.5119    435.42217    23.497255    22.152498   0.32651433    435.74869   -1199.3343 
    3500   -103160.08   -93877.883    225.40614    20724    226543.53    36.052959    51.093699   -247.13046    304.19564    435.31839     23.49468     22.15007   0.37840259     435.6968   -1181.1507 
    3600    -103168.7   -93801.874     227.4611    20724    226724.62   -22.701295   -80.405159   -160.90968    173.21095    435.36131     23.50291    22.157829   0.35694326    435.71826   -1250.7765 
    3700   -103172.25   -93820.772    227.08855    20724    226602.41   -124.28105   -66.429749   -125.42954   -180.98386    435.41404    23.495152    22.150515   0.33057858    435.74462   -1231.8924 
    3800    -103128.1   -93775.174    227.12349    20724    226619.36   -24.002794   -50.278672    242.12722   -263.85692    435.39577    23.496524    22.151808    0.3397172    435.73548   -1280.5486 
    3900   -103094.42   -93800.389    225.69346    20724     226557.4    18.816806    77.024645    53.871764    -74.44599    435.35768     23.49434    22.149749   0.35876087    435.71644   -1261.1762 
    4000   -103171.65   -93786.161    227.91428    20724    226526.69   -24.921288   -27.623628   -83.121291    35.981055     435.3624    23.492619    22.148127   0.35639751     435.7188   -1277.3157 
    4100   -103143.84   -93806.156    226.75353    20724    226521.32     21.11272   -40.091449    27.920345    75.509265     435.1116    23.499111    22.154247   0.48179973     435.5934   -1257.7562 
    4200   -103137.78   -93797.104    226.82612    20724    226458.16     13.08904    108.36683    27.615423   -96.715127    435.53008    23.484544    22.140514    0.2725594    435.80264   -1271.9285 
    4300    -103066.2   -93756.916    226.06372    20724    226604.18   -5.0817273   -16.838771   -70.020685    71.614274    435.62543    23.489543    22.145227   0.22488453    435.85032   -1306.4218 
    4400   -103114.26   -93771.863    226.86792    20724    226625.86    25.462253    -87.96703    157.24008    7.1137083    435.42676    23.496025    22.151338   0.32421957    435.75098    -1294.818 
    4500   -103177.61    -93717.55     229.7253    20724    226589.84   -99.842747     36.20721   -144.22954   -191.50591    435.31841    23.497081    22.152334   0.37839431    435.69681    -1346.926 
    4600   -103116.39   -93680.397    229.14084    20724    226718.82   -62.940417    40.458856   -135.29842   -93.981685    435.48381    23.499304    22.154429   0.29569318    435.77951   -1381.1695 
    4700   -102958.33   -93684.603    225.20038    20724    226709.89   -28.243462   -57.588882    98.635554   -125.77706    435.44804    23.499806    22.154903   0.31358075    435.76162   -1378.6822 
    4800   -103015.56   -93670.911    226.92269    20724    226676.55    42.622869   -108.36006     88.98181    147.24686    435.61716    23.493516    22.148973   0.22901989    435.84618   -1397.7068 
    4900   -103037.91   -93669.827    227.49181    20724    226618.91    2.4792737    -33.68809   -272.03876    313.16467    435.35004    23.497735     22.15295   0.36257958    435.71262   -1398.5685 
    5000   -103053.76   -93627.646     228.9008    20724    226698.07    58.518448    6.0594983    295.54566   -126.04981    435.56583    23.496016    22.151329   0.25468706    435.82051   -1442.6166 
    5100   -102993.95   -93596.703    228.19978    20724    226759.26     2.425997   -113.13058    34.526456    85.882119    435.54073    23.499864    22.154957   0.26723441    435.80797   -1470.4064 
    5200   -102990.37   -93568.283    228.80305    20724    226735.92   -2.0205576    86.892916   -137.56716    44.612576      435.434    23.501534    22.156532   0.32059934     435.7546   -1500.7498 
    5300   -102952.61   -93546.046    228.42607    20724    226548.31    50.578593   -105.22422    155.72672    101.23328    435.39775    23.492787    22.148285   0.33872404    435.73648   -1531.4067 
    5400   -102988.06   -93520.626    229.90421    20724    226666.86   -15.755151   -62.558831     91.94304   -76.649662    435.35636    23.500049    22.155132    0.3594177    435.71578   -1552.3028 
    5500   -102919.71   -93491.083    228.96188    20724    226602.02   -48.582516   -188.68248   -37.727768    80.662697    435.20665    23.500729    22.155773   0.43427584    435.64092   -1581.2198 
    5600   -102944.26    -93510.13    229.09554    20724    226684.98    17.401984    29.202822   -79.522351    102.52548    435.42897    23.499029    22.154171    0.3231163    435.75208   -1564.1475 
    5700   -102830.67   -93482.906    226.99825    20724    226567.86    16.859991     141.4179    123.66776   -214.50569     435.4177    23.493262    22.148733   0.32875138    435.74645    -1592.425 
    5800   -102873.47   -93512.006    227.33093    20724    226627.92    17.353259    66.189072   -72.336087    58.206791    435.42396    23.496207     22.15151   0.32562218    435.74958   -1563.8036 
    5900   -102988.04   -93452.653    231.55448    20724    226728.28    51.069693    57.502637   -53.738342    149.44479    435.44999    23.500707    22.155752   0.31260743    435.76259   -1623.3043 
    6000   -102900.53   -93436.735    229.81587    20724     226560.3   -20.369169    172.70396    5.8655152   -239.67698    435.38168    23.493842     22.14928   0.34676159    435.72844   -1641.3769 
    6100   -102916.66   -93448.015    229.93363    20724     226637.8    18.012934    108.74055    -356.8971    302.19535    435.30052     23.50005    22.155133   0.38733977    435.68786   -1631.1869 
    6200   -102992.63   -93440.044    231.97206    20724    226641.94   -15.101471   -118.87743    41.919255    31.653763    435.41149     23.49727    22.152512   0.33185379    435.74335    -1640.425 
    6300   -103030.73   -93438.538    232.93391    20724    226533.21   -84.112834    47.190621   -313.94063    14.411506    435.29483    23.494781    22.150165    0.3901827    435.68502    -1643.262 
    6400   -102896.86   -93415.958    230.23138    20724    226663.58    50.238399   -26.791233    -45.73653    223.24296    435.12842    23.506034    22.160774   0.47338819    435.60181    -1667.772 
    6500   -102882.13   -93418.554    229.81055    20724    226555.18   -71.319601    41.630374    43.670102   -299.25928    435.15982    23.499565    22.154675   0.45768895    435.61751   -1663.8439 
    6600   -102923.08   -93411.442    230.97762    20724    226638.27   -13.887321     50.54582    -119.1592    26.951421     435.5809     23.49251    22.148024   0.24714851    435.82805   -1673.0197 
    6700   -102759.72   -93358.096    228.30619    20724    226499.22    60.201672   -33.791323    8.1161333    206.28021    435.29889    23.492909      22.1484   0.38815557    435.68704   -1734.6709 
    6800   -102789.83   -93349.981    229.23436    20724    226543.99   -62.845974    45.726629   -90.642593   -143.62196    435.28572    23.495586    22.150924   0.39473798    435.68046   -1735.5934 
    6900   -102883.27   -93340.335    231.73787    20724    226721.38    36.599058    74.510678    150.05871   -114.77222    435.21966    23.506566    22.161276   0.42777132    435.64743   -1746.9275 
    7000   -102905.25   -93322.614    232.70181    20724    226705.65   -66.660769    54.147661   -273.17485    19.044879     435.3961    23.500988    22.156017   0.33954952    435.73565   -1762.2313 
    7100   -102888.66   -93314.487    232.49623    20724    226802.13   -29.012868    125.21083   -156.13345   -56.115974    435.80562    23.494942    22.150317   0.13479005    435.94041   -1771.3523 
    7200   -102822.55   -93262.985    232.14154    20724    226670.02   -39.393142   -31.583133    228.91056   -315.50685    435.37037    23.499835     22.15493   0.35241335    435.72279   -1824.8971 
    7300    -102819.1   -93300.555    231.14546    20724    226728.97    3.7494595    55.887283    247.93668   -292.57558    435.22701    23.506762     22.16146   0.42409394    435.65111   -1789.9088 
    7400   -102867.56   -93296.263     232.4265    20724     226744.3   -17.669911    40.891001    34.736554   -128.63729    435.22655    23.507569    22.162221   0.42432507    435.65087   -1794.4224 
    7500   -102788.78   -93314.609    230.06781    20724    226808.55   -11.422721   -115.85813   -19.670287    101.26025    435.47327    23.504238    22.159081   0.30096587    435.77423   -1773.8845 
    7600   -102778.52   -93240.986    231.60658    20724    226864.29     -14.6917    68.993502   -411.46449    298.39589    435.31105    23.511505    22.165933   0.38207589    435.69312   -1846.8118 
    7700   -102889.81   -93256.687    233.92781    20724     226666.9    19.221314   -82.230728   -29.729658    169.62433    435.37024    23.499677    22.154781   0.35247879    435.72272   -1839.4492 
    7800   -102785.19   -93254.922    231.43017    20724    226727.98   -44.711736   -267.89758   -64.639484    198.40185    435.35732    23.503192    22.158095   0.35893918    435.71626   -1834.9874 
    7900   -102774.96   -93248.916     231.3276    20724    226707.59   -67.884468   -159.53446   -195.12825    151.00931    435.47288    23.499017    22.154159   0.30116007    435.77404    -1844.532 
    8000   -102897.55   -93211.471    235.21372    20724    226983.39     -47.5386   -23.083177    51.420674    -170.9533    435.90036    23.501774    22.156758  0.087421304    435.98778   -1879.2237 
    8100   -102714.46   -93200.624    231.03117    20724    226888.34    6.4814926    20.224855    183.27483   -184.05521    435.62155    23.504371    22.159206   0.22682321    435.84838   -1894.3515 
    8200    -102771.2   -93137.344    233.94567    20724    226893.83   -30.831528   -102.76334   -14.602391    24.871152     435.4962    23.508037    22.162663   0.28950169     435.7857   -1955.0235 
    8300    -102718.1    -93130.92    232.81221    20724    226807.43    45.698281    184.89621   -139.90158    92.100212    435.75269    23.496643    22.151921    0.1612553    435.91394    -1968.707 
    8400   -102634.43   -93104.985    231.41016    20724    226995.84    54.332277   -68.698356    9.8120274    221.88316    435.59716    23.510596    22.165076   0.23901873    435.83618    -1991.123 
    8500   -102720.79   -93095.617    233.73482    20724    227085.37    27.056391    6.1782908    279.20563   -204.21475    435.75847    23.510879    22.165342   0.15836493    435.91684   -2001.2165 
    8600   -102744.05   -93105.155    234.06789    20724    227091.67    4.3322033    136.76368     124.5171   -248.28416    435.65111    23.514103    22.168381   0.21204672    435.86315   -1991.5422 
    8700   -102741.63   -93063.786    235.01392    20724    226975.24    11.055939    185.60628    59.472401   -211.91086    435.73414    23.505834    22.160586   0.17053042    435.90467   -2034.8396 
    8800   -102625.19   -93060.197    232.27337    20724    227015.24   -57.060053   -190.48955    282.75158   -263.44219    435.75934    23.507225    22.161897   0.15793237    435.91727   -2034.1898 
    8900    -102708.9   -93056.646    234.39238    20724    227002.69   -44.089948    46.513542   -118.88814   -59.895245    435.87072    23.503572    22.158453   0.10224242    435.97296   -2041.3404 
    9000   -102672.21   -93035.174    234.02276    20724     226980.3    18.781762   -58.542454   -37.725429    152.61317    435.62037    23.509165    22.163726   0.22741745    435.84778   -2068.0854 
    9100   -102692.88   -93027.647    234.70752    20724     226902.9   -58.564218   -32.436888   -214.19831    70.942547    435.40723    23.510909     22.16537   0.33398642    435.74121   -2075.1491 
    9200   -102630.13   -93012.699     233.5467    20724    226838.43   -36.606603    29.154203    182.71678   -321.69079    435.39997    23.507764    22.162406   0.33761636    435.73758    -2091.549 
    9300    -102561.4    -92961.68     233.1167    20724    226668.34    52.156401    245.08181    108.70719    -197.3198    435.33145    23.500799    22.155838   0.37187309    435.70333   -2153.2879 
    9400   -102636.59   -92983.886    234.40334    20724    226848.75    9.4584112    93.591347    58.049507   -123.26562     435.3452    23.509778    22.164304   0.36500002     435.7102   -2125.2536 
    9500   -102656.03   -92988.595    234.76095    20724    226729.03    27.829285     181.7044    145.02719   -243.24374    435.16419    23.508461    22.163063   0.45550495     435.6197   -2127.1957 
    9600   -102612.47   -92949.607    234.64991    20724    226643.92   -55.990031    89.585902    69.220064   -326.77606    435.13916    23.504725     22.15954    0.4680214    435.60718   -2164.2353 
    9700   -102585.57   -92948.946    234.01293    20724    226851.48   0.87553077   -88.841271    40.200986    51.266877    435.64154    23.501922    22.156898   0.21682812    435.85837   -2160.6128 
    9800   -102616.69   -92944.895    234.86683    20724    226750.97   -18.963852    13.360014   -332.71757      262.466    435.35554    23.504432    22.159264   0.35982889    435.71537   -2171.5189 
    9900   -102555.88   -92960.493    233.01153    20724    226840.18    36.592692   -17.125106   -172.78628    299.68946    435.32429    23.509898    22.164418   0.37545276    435.69975   -2154.2323 
   10000   -102560.43   -92943.599    233.53228    20724    226694.31    75.982798    -68.96397    17.423246    279.48912    435.43838    23.499259    22.154387   0.31841162    435.75679    -2177.842 
   10100   -102538.75   -92894.161    234.20632    20724    226663.23    68.450868    18.073015    207.10587   -19.826278    435.30568    23.501229    22.156245   0.38476086    435.69044   -2230.4908 
   10200   -102548.73   -92922.695    233.75584    20724    226856.58      71.1907    252.25429   -32.430436   -6.2517583    435.51643    23.505562    22.160329   0.27938697    435.79581   -2198.3106 
   10300   -102640.65   -92907.498    236.35696    20724    226903.83   -95.953891   -131.87321    133.02693    -289.0154    435.36516    23.512093    22.166486   0.35501974    435.72018   -2205.3143 
   10400   -102583.34   -92875.317    235.74671    20724    226812.83   -34.629803   -143.83339     183.9791   -144.03512    435.41097    23.506141    22.160875   0.33211619    435.74308   -2242.6293 
   10500   -102495.55   -92855.826    234.08814    20724    226735.56    33.996212    89.153884   -186.97073    199.80548    435.37901       23.503    22.157913   0.34809323    435.72711   -2267.4588 
   10600   -102643.36   -92860.496    237.56413    20724    226794.76   -160.93371    -140.4188   -279.85017   -62.532175    435.50428    23.502686    22.157618   0.28545948    435.78974   -2253.6836 
   10700   -102538.84   -92847.103    235.35108    20724    226784.45    61.679727    62.699345   -49.768986    172.10882     435.6004    23.499559     22.15467    0.2374014     435.8378   -2281.0158 
   10800   -102516.11   -92809.872    235.70323    20724    226911.48     52.76026    26.157627    242.16452   -110.04137    435.49145     23.50908    22.163646   0.29187655    435.78332   -2312.3757 
   10900   -102506.15   -92818.043    235.26299    20724    226752.43   -10.342772   -6.6311654   -128.46919    104.07203     435.4146    23.502913    22.157832    0.3303005     435.7449   -2308.2618 
   11000   -102494.08   -92807.436    235.22759    20724    226827.95    100.64814    219.78386    108.94075    -26.78017     435.4304    23.506401     22.16112   0.32240176     435.7528   -2321.9835 
   11100   -102526.71   -92811.006    235.93321    20724    226720.71   -59.818012   -281.68768   -9.0735666    111.30721    435.43518    23.500714    22.155758   0.32000942    435.75519   -2314.1507 
   11200    -102474.7   -92770.774    235.64712    20724    226905.42    30.866554   -16.757708   -50.060826    159.41819    435.43705    23.510235    22.164734   0.31907745    435.75612   -2354.9498 
   11300   -102529.81   -92759.756    237.25303    20724    226864.95    -57.37944     57.52264   -233.41377    3.7528106    435.39451    23.509286     22.16384   0.34034623    435.73485   -2363.4413 
   11400   -102385.32   -92704.396    235.08855    20724     226713.6    6.5336843    35.435579   -90.301463    74.466936    435.54557    23.497367    22.152603   0.26481336    435.81039   -2424.2921 
   11500   -102461.72   -92758.627    235.62686    20724    226625.36    17.127684    52.094819    65.758461   -66.470228     435.2175    23.501646    22.156638   0.42884927    435.64635   -2374.9813 
   11600   -102436.97   -92743.676    235.38902    20724    226745.32     14.62507    -39.33174   -68.031045      151.238    435.49793    23.500296    22.155365   0.28863723    435.78656   -2389.1371 
   11700   -102497.25   -92750.678    236.68292    20724    226608.27    -122.0451     -187.562   -97.604246   -80.969043    435.52914    23.492351    22.147875   0.27303085    435.80217   -2379.1244 
   11800   -102478.23   -92744.143    236.37967    20724    226669.25   -80.614781   -133.72112    36.595075    -144.7183    435.27627    23.502335    22.157287   0.39946497    435.67574   -2388.9987 
   11900   -102453.16   -92669.216    237.59023    20724    226596.48   -93.715192   -199.99017     222.5897   -303.74511    435.08817    23.503642    22.158519   0.49351319    435.58169   -2465.1173 
   12000    -102419.6   -92698.955    236.05328    20724    226627.68    9.4536083    85.807835   -184.59054    127.14353      435.356    23.498028    22.153227   0.35959816     435.7156   -2440.4357 
   12100   -102544.79   -92687.089    239.38154    20724     226603.8    -103.1478   -30.896931   -135.72428    -142.8222    435.13559     23.50274    22.157669   0.46980253     435.6054   -2450.5167 
   12200   -102393.61   -92652.835    236.54204    20724     226612.8    18.658047   -22.064961   -131.87848    209.91758     435.0759     23.50482    22.159629   0.49965142    435.57555   -2487.9374 
   12300   -102366.43   -92652.054    235.90102    20724    226570.23   -6.5476816   -146.47414   -60.705222    187.53632    435.08421    23.502387    22.157336   0.49549464    435.57971   -2490.8665 
   12400   -102382.36   -92659.127    236.11605    20724    226733.02    -30.71146   -44.897189    131.66297   -178.90016    435.41041     23.50202     22.15699   0.33239707     435.7428    -2479.282 
   12500   -102419.05   -92663.189    236.90834    20724    226590.48    84.510937   -36.627432    166.66893    123.49131     435.3365    23.496626    22.151905   0.36935152    435.70585   -2486.7914 
   12600   -102468.67   -92653.381    238.35146    20724    226693.78   -44.356725  0.046964793   -91.430066   -41.687075    435.55444    23.496101    22.151409   0.26037777    435.81482   -2488.2083 
   12700   -102381.48   -92596.883    237.60611    20724    226728.07   -41.057333   -122.04752    12.795935   -13.920416    435.30442    23.504625    22.159446   0.38539066    435.68981   -2546.0946 
   12800   -102353.23   -92573.317    237.49244    20724    226884.46    7.2470625    34.869049   -47.758288    34.630426    435.34286    23.511692    22.166108   0.36617173    435.70903   -2568.1864 
   12900   -102193.28   -92562.661    233.86702    20724    226806.26    99.527112    197.17798    237.61583   -136.21247    435.39337    23.506276    22.161002   0.34091585    435.73428    -2584.164 
   13000   -102248.33   -92541.843    235.70942    20724    226763.67   -20.776249    37.833204    37.483756   -137.64571    435.21897    23.508778    22.163361   0.42811602    435.64708   -2602.7246 
   13100   -102317.33   -92522.356     237.8583    20724    226828.49    7.8123095    70.420997    201.74901   -248.73308    435.36718    23.508135    22.162755   0.35401175    435.72119   -2622.5792 
   13200   -102333.92   -92506.939     238.6355    20724    226759.75   -13.787409    226.40616   -455.95022    188.18184    435.44664    23.502428    22.157374   0.31427796    435.76092   -2642.0545 
   13300   -102270.82   -92496.175    237.36449    20724    226863.76   -3.7120943   -128.79594    286.72365     -169.064    435.44031    23.507988    22.162616   0.31744361    435.75776   -2649.7839 
   13400   -102220.73   -92513.693    235.72276    20724    226815.96    67.113399    29.134213    110.54508    61.660904    435.13093    23.513866    22.168158    0.4721349    435.60307   -2637.9117 
   13500   -102139.56   -92478.156    234.61463    20724    226814.51    45.730276    136.48581    162.62697   -161.92196    435.33017     23.50841    22.163014   0.37251313    435.70269   -2673.3234 
   13600   -102300.42   -92445.623    239.31088    20724    226926.25   -14.017644    29.683737   -285.62962    213.89295    435.35428    23.513548    22.167859   0.36045935    435.71474    -2701.325 
   13700   -102241.41   -92449.618    237.78094    20724    226786.59    41.251741    186.28419   -61.236427   -1.2925349     435.2028    23.510403    22.164893   0.43620221      435.639   -2706.4303 
   13800   -102109.17   -92417.784    235.34256    20724    226663.91    86.159955    56.601724    138.95744    62.920699    435.40076    23.498699    22.153859   0.33722004    435.73798   -2743.7439 
   13900   -102242.96   -92371.098    239.72538    20724    226932.23    27.141835    16.907448    168.29478   -103.77673    435.85431    23.500366    22.155431   0.11044432    435.96476   -2784.0163 
   14000   -102168.62   -92417.478    236.79368    20724    226793.99    15.021991    38.504733    34.264461   -27.703221    435.42098    23.504895      22.1597   0.32711221    435.74809   -2740.5428 
   14100   -102171.99   -92377.817    237.83861    20724    226840.76    30.527959     57.70203     63.21042   -29.328572    435.80959    23.496835    22.152102   0.13280403     435.9424   -2778.8381 
   14200    -102109.4   -92400.919    235.75782    20724       226708    65.639195    229.52147   -52.746948    20.143067    435.74577    23.491679     22.14724   0.16471317    435.91049   -2762.1127 
   14300   -102202.76   -92407.939    237.85453    20724    226916.68   -1.9324768    208.51784    -211.6889    -2.626371    435.62756    23.505676    22.160437   0.22382018    435.85138   -2748.5764 
   14400   -102068.46   -92392.109    234.97754    20724    226741.01    46.852335   -107.76617   -75.020369    323.34355    435.43374    23.501805    22.156787    0.3207318    435.75447   -2771.4221 
   14500   -102210.17   -92389.222    238.48899    20724    226854.85     9.074685    222.10084   -286.83848      91.9617    435.29762    23.511379    22.165813   0.38878965    435.68641   -2773.3307 
   14600   -102126.83   -92407.864     236.0125    20724    226788.29    46.458494    194.20813    51.386489   -106.21913    435.42396    23.504519    22.159346   0.32561941    435.74958   -2759.0571 
   14700   -102299.11   -92423.392    239.81903    20724    226756.37   -22.875103   -54.625605    125.19888   -139.19858    435.29939    23.506227    22.160957    0.3879064    435.68729   -2743.9291 
   14800    -102137.8   -92402.448    236.41035    20724    226845.57   -26.470879   -167.01241    124.62129    -37.02151    435.39854    23.508173    22.162791   0.33832862    435.73687   -2762.5023 
   14900   -102183.29   -92363.595    238.45855    20724    226805.57   -17.543092   -45.040794    99.719644   -107.30813    435.20523     23.51132    22.165758   0.43498281    435.64022   -2803.2357 
   15000   -102187.49   -92373.388    238.32278    20724    226892.68   -8.7674322   -88.312487    15.724934    46.285256     435.6438    23.503995    22.158852   0.21570241     435.8595   -2792.3629 
   15100   -102152.13   -92398.697    236.84935    20724    226876.09    10.287592    62.691703    142.39442   -174.22334    435.65187    23.502918    22.157836   0.21166356    435.86354   -2768.1969 
   15200   -102158.45   -92417.128    236.55523    20724    226733.23     37.11364    289.45717   -19.036644    -159.0796    435.51177    23.499296    22.154422   0.28171694    435.79348   -2755.8351 
   15300   -102201.23   -92437.182    237.10716    20724    226649.87   -26.610225    28.214539   -46.536484    -61.50873    435.28248    23.501163    22.156182   0.39636166    435.67884   -2737.6239 
   15400   -102115.38   -92378.792    236.44046    20724    226615.52   -6.6839646   -101.93694    83.599586   -1.7145358    435.27769    23.499511    22.154625   0.39875282    435.67645   -2796.3682 
   15500   -102263.48   -92344.035    240.88089    20724    226724.72     45.67179   -6.0862128    12.469487     130.6321    435.26253    23.505582    22.160348   0.40633362    435.66887   -2833.8812 
   15600   -102039.48   -92362.487    234.99317    20724    226312.11     8.800791    99.945615    36.549568   -110.09281    435.09191    23.488788    22.144515   0.49164485    435.58356   -2825.2451 
   15700   -102043.86   -92330.253    235.88229    20724    226593.77    53.488843   -66.135044     73.85553    152.74604    434.96705    23.506774    22.161471   0.55407713    435.52112   -2851.9092 
   15800   -101961.96   -92317.975    234.19164    20724     226594.4    93.177437    18.259472    250.60535    10.667488    435.01557    23.505495    22.160266     0.529815    435.54538   -2867.6073 
   15900   -102166.75   -92341.715    238.58817    20724    226551.11   -6.1961124     202.1891   -179.21151    -41.56593    435.05788    23.502107    22.157072   0.50866001    435.56654   -2843.1455 
   16000   -102011.56   -92284.329    236.21306    20724    226617.58    21.841145    7.2783178    9.0356976    49.209418    435.12999    23.503607    22.158486   0.47260748    435.60259   -2899.3707 
   16100   -102074.77   -92271.137    238.06844    20724    226687.33   0.20991985   -117.59074   -162.27707    280.49757    435.12523    23.507352    22.162016   0.47498454    435.60022    -2910.439 
   16200   -101972.07   -92232.178    236.52064    20724    226701.12    24.687383    162.96735   -233.04192    144.13672    434.88026    23.514687    22.168932   0.59747078    435.47773   -2950.5844 
   16300   -102058.45   -92262.692    237.87722    20724    226577.83   -87.187589    3.4148851   -238.01635   -26.961308    435.23738    23.498645    22.153808   0.41891161    435.65629   -2919.2274 
   16400    -102111.6   -92264.395    239.12659    20724    226598.76 -0.017347454   -9.8240111   -20.056107    29.828076    435.30151    23.497999    22.153199   0.38684388    435.68836   -2921.6663 
   16500   -102019.96   -92243.525    237.40799    20724    226729.55    26.125997   -182.25879   -13.648681    274.28546    435.24418    23.506328    22.161051   0.41551099    435.65969   -2942.3464 
   16600   -102113.14   -92216.491    240.32711    20724    226623.19   -107.41218    45.741403   -37.063681   -330.91428    435.23285     23.50112    22.156141   0.42117538    435.65402   -2966.3085 
   16700   -102088.84   -92179.115    240.64466    20724    226631.68   -66.065641   -46.095724   -20.149814   -131.95138    435.18795    23.502772    22.157699    0.4436235    435.63158   -3006.0208 
   16800   -102050.63   -92194.977    239.33163    20724    226654.96   -21.458103   -21.538094   -259.84347    217.00725    435.06993    23.507167    22.161843   0.50263634    435.57256   -2993.6999 
   16900   -102003.48   -92179.543    238.56157    20724    226832.91    94.106429    157.66997    62.742246    61.907067    435.35875    23.508591    22.163185   0.35822327    435.71698   -3011.2644 
   17000   -102005.55    -92188.54     238.3934    20724    226777.22    61.249394    67.737738    128.99578   -12.985338    435.17005    23.510801    22.165269     0.452576    435.62262   -3001.8511 
   17100   -101929.84   -92175.376    236.87448    20724    226599.44    24.260792    167.63082   -150.95852     56.11008    435.09508    23.503608    22.158487   0.49006123    435.58514   -3019.2376 
   17200   -102013.83   -92170.258    239.03835    20724    226608.61    3.1958582    115.03149   -13.881166   -91.562745    435.16842    23.502103    22.157069   0.45338859    435.62181    -3025.088 
   17300   -101994.99   -92205.822    237.71724    20724    226523.44    34.212327    192.44228   -273.57685    183.77154     434.9086    23.504704    22.159521   0.58329977     435.4919   -2992.6135 
   17400   -102058.39   -92176.428    239.97068    20724    226546.77    25.015815   -17.814918     133.3537   -40.491337    435.07732    23.501356    22.156364   0.49894107    435.57626   -3022.7831 
   17500   -102036.69   -92172.007    239.55096    20724    226454.74    -98.63236   -192.93275   -272.88462    169.92029    434.91198    23.501049    22.156074   0.58160967    435.49359   -3024.6151 
   17600   -101968.28   -92142.912    238.59624    20724    226403.52    75.644221    199.78044    73.124425   -45.972207    434.72649    23.503403    22.158294   0.67435565    435.40084   -3062.7933 
   17700   -101930.47    -92108.13     238.5227    20724    226475.75    -29.59985    23.119954    170.51957   -282.43907    434.94798    23.501166    22.156185   0.56361098    435.51159   -3092.5299 
   17800    -101947.7   -92127.599    238.46833    20724    226523.31    114.63286    155.18285     16.03489    172.68082    434.70587    23.510178    22.164681   0.68466697    435.39053   -3079.1004 
   17900   -101992.83   -92117.648    239.80604    20724    226421.23   -2.0488436    82.495028   -79.573981   -9.0675772    434.50769     23.51024    22.164739   0.78375665    435.29144   -3087.9308 
   18000   -101978.14    -92087.37    240.18456    20724    226339.06   -61.083113    66.780874    -198.1199   -51.910313    434.53613    23.505204    22.159992   0.76953618    435.30566   -3117.0055 
   18100   -102016.68   -92118.459    240.36529    20724    226434.06     40.72846    140.00873    13.741956   -31.565308    434.62107    23.507839    22.162476   0.72706555    435.34813   -3092.1631 
   18200   -102004.41   -92135.102    239.66338    20724    226316.48    -30.79013   -108.67249   -189.89634    206.19843    434.37295    23.508446    22.163048   0.85112482    435.22408   -3074.8392 
   18300   -101996.49   -92124.649    239.72472    20724    226290.96   -33.262057   -5.7010992    -100.1364    6.0513324    434.17104    23.512586    22.166951   0.95208163    435.12312   -3086.8703 
   18400   -102024.45   -92102.334    240.94566    20724    226390.77    40.580732     37.80533   -108.25401    192.19087    434.32383    23.513634    22.167939   0.87568593    435.19951   -3111.3133 
   18500   -101846.31   -92042.212    238.07976    20724    226464.34   -4.4987694   -48.262169    107.86455   -73.098693    434.38082    23.515911    22.170086   0.84719137    435.22801   -3165.5575 
   18600   -101920.24   -92010.519    240.64475    20724    226438.05   -85.794373     6.610792   -372.41289    108.41898    434.13485    23.521206    22.175078    0.9701759    435.10502   -3196.0032 
   18700   -101912.07   -92036.263    239.82101    20724     226261.1    22.878101    78.436109   -126.88243    117.08063    434.10563    23.512805    22.167158   0.98478684    435.09041   -3183.4168 
   18800   -101874.41   -91974.058    240.41708    20724    226382.13    37.914035    70.662655    100.42317   -57.343718    434.15898    23.517648    22.171724   0.95811069    435.11709   -3242.1377 
   18900   -101850.67   -91935.614    240.77411    20724    226313.25   -28.414127   -88.409143   -19.718041    22.884803    434.33009    23.509438    22.163983   0.87255589    435.20264   -3280.0664 
   19000   -101822.67   -91942.526    239.92651    20724    226348.95    10.651356    52.702287   -81.634116    60.885898    434.26208    23.513133    22.167467   0.90655977    435.16864   -3274.3248 
   19100   -101885.18   -91960.296    241.01294    20724    226372.09    2.3197752    106.99756    225.11884   -325.15707    434.15375    23.517269    22.171366   0.96072612    435.11447   -3258.6777 
   19200   -101857.49   -91971.177    240.07633    20724    226235.59   -101.91489    67.648513   -28.706211   -344.68697    434.07279     23.51237    22.166747    1.0012073    435.07399   -3244.9254 
   19300   -101848.12   -91948.795    240.39222    20724    226393.54    46.871243   -84.418512    317.67989   -92.647643    434.18428    23.517556    22.171637   0.94545806    435.12974   -3273.7195 
   19400   -101871.18    -91934.82    241.29151    20724    226289.73   -74.479765   -144.03557   -169.27954    89.875816    434.16553    23.512671    22.167031   0.95483421    435.12037   -3284.8958 
   19500   -101898.07   -91930.716    242.04422    20724    226298.57    35.936787     113.9966    25.993225   -32.179463    434.13049    23.514079    22.168359   0.97235538    435.10284   -3295.5714 
   19600   -101781.74   -91905.808    239.82423    20724    226356.98   -22.093758   -213.44554  -0.46400106    147.62827    434.42436    23.509158    22.163719   0.82541825    435.24978    -3315.719 
   19700   -101780.45   -91925.777    239.30792    20724    226199.11    19.259634     16.91058   -35.809817     76.67814    434.21539    23.506613     22.16132   0.92990598    435.14529   -3302.2212 
   19800   -101786.39   -91943.634    239.01845    20724    226184.09    2.7577018    36.782581   -53.760268    25.250792    434.46539    23.499069    22.154208   0.80490323     435.2703   -3285.2811 
   19900   -101878.76    -91943.88    241.25555    20724     226175.4   -40.324263     12.45441   -37.426887   -96.000312    434.46985    23.498497    22.153668   0.80267406    435.27253   -3283.5677 
   20000   -101839.87   -91900.588    241.36254    20724    226314.98    9.4152251    15.297333    1.9739935    10.974349    434.74867    23.498208    22.153396   0.66326706    435.41193   -3328.7531 
   20100   -101845.51     -91884.1    241.89976    20724    226256.83   -28.426959   -57.218792   -222.59695    194.53486    434.77808    23.494394    22.149801   0.64856205    435.42664   -3345.0417 
   20200   -101759.74   -91818.037     241.4214    20724     226297.9    21.873235   -74.501245   -107.22495     247.3459    434.43925    23.505687    22.160447   0.81797691    435.25722   -3411.7198 
   20300   -101754.75   -91876.007    239.89228    20724    226322.51   -7.8760193    46.731428    66.476293   -136.83578    434.55249    23.503902    22.158765   0.76135747    435.31384   -3353.0067 
   20400   -101800.47   -91887.958    240.71239    20724    226377.17    23.092596     154.6189   -166.38614    81.045029    434.42973    23.510061    22.164571   0.82273358    435.25247   -3340.7123 
   20500   -101823.41   -91836.265    242.52476    20724    226412.37   -37.792291    30.918337   -194.21907    49.923858    434.50805     23.50977    22.164296   0.78357716    435.29162   -3390.5004 
   20600   -101722.27   -91866.277       239.34    20724     226428.8    24.145963    229.20106   -401.79443    245.03126    434.70619    23.505264    22.160048   0.68450327     435.3907   -3363.6415 
   20700   -101874.94   -91855.564    243.30756    20724    226499.37   -107.16155   -254.31358    226.89522   -294.06629    434.48571    23.514891    22.169124   0.79474546    435.28045   -3367.9115 
   20800   -101728.39   -91794.832    241.22345    20724    226507.73   -62.664615   -124.71404    192.24338   -255.52319    434.37275    23.518382    22.172416   0.85122556    435.22397   -3432.0947 
   20900    -101782.7   -91787.092    242.73026    20724    226310.01    25.637536    171.98673   -223.60549    128.53137    434.33581    23.509115    22.163679   0.86969536     435.2055   -3451.2648 
   21000   -101681.16   -91791.604    240.15502    20724    226159.03    49.754248    176.08464   -56.303877    29.481985    434.16659    23.505851    22.160602   0.95430576    435.12089   -3452.6887 
   21100   -101696.57   -91779.686    240.81872    20724    226427.25   0.13868643    62.539183    74.682328   -136.80545    434.34615    23.514923    22.169155   0.86452609    435.21067    -3456.744 
   21200   -101752.04   -91816.331    241.27569    20724    226302.15   -110.43784   -118.77143   -198.90546   -13.636634    433.96009    23.518881    22.172886    1.0575567    435.01764   -3420.6287 
   21300      -101765   -91819.426    241.51524    20724    226382.39    77.964594    298.32848    21.081114   -85.515811    434.05612    23.520448    22.174364    1.0095416    435.06566   -3424.3188 
   21400   -101656.54   -91785.942    239.69471    20724    226476.37     18.87072    3.1720397   -190.97016    244.41028    434.26678    23.519623    22.173586   0.90421168    435.17099   -3453.0791 
   21500   -101715.33   -91753.607    241.90743    20724     226245.2   -27.149435   -162.93429    105.15844   -23.672462    434.17793    23.510022    22.164534   0.94863355    435.12657   -3493.0534 
   21600   -101779.45   -91779.676    242.83145    20724    226307.38   -115.39172    -148.1799    157.16645   -355.16173    434.22084     23.51209    22.166484      0.92718    435.14802   -3462.3685 
   21700   -101762.03   -91741.074    243.34582    20724    226355.91   -39.964619    40.648437    -174.2274    13.685107    434.47505    23.507731    22.162374   0.80007673    435.27512   -3504.3042 
   21800   -101664.62   -91749.512    240.77546    20724    226229.73   -24.706733   -117.00621   -74.118264    117.00428    433.94312    23.515577    22.169771    1.0660381    435.00916   -3499.7473 
   21900   -101624.04    -91686.29    241.32541    20724    226368.23    41.664291   -123.36639    165.69433    82.664933    434.14556    23.517289    22.171386   0.96481753    435.11038    -3563.109 
   22000   -101639.01   -91737.242    240.45164    20724    226191.91    43.469144   -79.532204    6.4437434    203.49589    434.04198    23.510934    22.165394    1.0166124    435.05859   -3518.5659 
   22100   -101731.32   -91695.729    243.70119    20724    226260.45   -41.971943   -169.98404   -121.49417    165.56238    434.10679     23.51274    22.167097   0.98420262      435.091   -3555.0031 
   22200   -101753.62   -91725.203    243.52697    20724    226367.57   -29.962447   -124.75227   -31.818961    66.683893    434.14199    23.517352    22.171445   0.96660594    435.10859   -3523.4914 
   22300   -101647.82   -91682.067    242.00534    20724    226145.02    51.954867     136.5793   -174.39663    193.68193    434.11342    23.506563    22.161273   0.98089189    435.09431   -3577.2817 
   22400   -101734.76   -91636.868    245.21421    20724    226388.36   -48.947939   -89.723056    43.383896   -100.50466    433.95491    23.523501    22.177242     1.060146    435.01505   -3614.9776 
   22500   -101599.11    -91623.28    242.25009    20724    226344.63   -25.476697    86.088279   -88.153562    -74.36481    434.06728    23.518184    22.172229    1.0039622    435.07124   -3628.5743 
   22600   -101580.72   -91678.889      240.453    20724     226401.9   -33.217222   -75.011107    61.589185   -86.229745    434.34534    23.513629    22.167935   0.86493201    435.21027   -3574.8423 
   22700   -101693.44   -91615.779    244.72284    20724    226291.85   -9.8322879   -22.433226   -40.552982    33.489344    434.57808    23.501618    22.156611   0.74856178    435.32664   -3644.3378 
   22800   -101578.71   -91622.888    241.76408    20724    226289.14    24.623227    152.35706    298.43517   -376.92255    434.28739    23.509341    22.163892   0.89390525    435.18129   -3638.2193 
   22900   -101687.33   -91602.962    244.88584    20724    226216.46    10.426814    127.74794   -113.46098    16.993472     434.1456    23.509404    22.163951   0.96480089     435.1104   -3662.1933 
   23000   -101690.99   -91635.334    244.18858    20724    226168.81   -46.341879   -50.416156   -229.28511    140.67563    434.15561    23.506657    22.161361   0.95979329    435.11541    -3628.196 
   23100   -101562.07   -91577.855    242.45353    20724    226293.42    13.932973    171.37634   -358.31711    228.73969    434.40637    23.506344    22.161067   0.83441693    435.24078   -3685.7557 
   23200   -101701.43   -91621.715    244.77286    20724    226466.92   -21.035713    42.711911   -209.91422    104.09517    434.46891    23.513661    22.167965   0.80314727    435.27205   -3636.9194 
   23300    -101531.2   -91591.217    241.37951    20724    226403.62    75.705281    51.846513   -178.97563    354.24496    434.30024    23.514939     22.16917    0.8874784    435.18772    -3675.632 
   23400   -101506.78   -91578.108    241.10481    20724    226167.49    50.460766   -109.30637    168.31331    92.375365    434.22419    23.504732    22.159547   0.92550282     435.1497   -3694.9629 
   23500   -101591.71   -91517.938    244.62844    20724    226610.56   -30.536431   -29.979889    34.883773   -96.513179    434.72044    23.514311    22.168578   0.67738067    435.39782   -3741.0221 
   23600   -101497.23   -91528.623    242.07472    20724    226283.63    55.076337    64.910508   -223.18434    323.50285    434.32649    23.507997    22.162625   0.87435466    435.20085   -3743.3987 
   23700   -101570.39   -91531.947    243.77041    20724    226436.49   -64.888983   -26.493527   -199.43893    31.265511    434.49331    23.511421    22.165852   0.79094356    435.28426   -3733.0612 
   23800   -101555.81   -91567.747    242.54721    20724    226305.16    30.419316    18.824409    107.55931   -35.125766    434.33977    23.508756     22.16334   0.86771344    435.20749   -3706.0968 
   23900   -101572.65   -91568.027    242.94914    20724    226329.58    100.30974    82.945166    206.05989    11.924175    434.35817    23.509526    22.164067   0.85851413    435.21669   -3709.7208 
   24000   -101597.82   -91577.368    243.33359    20724    226226.75    -17.96815   -61.146635    74.323414    -67.08123    434.14362    23.509992    22.164506   0.96579035    435.10941   -3699.1677 
   24100   -101581.02   -91586.921    242.69371    20724    226282.03   -31.402616   -131.32616   -23.794383    60.912691    434.07543    23.514711    22.168954   0.99988292    435.07532   -3689.0279 
   24200    -101569.6   -91545.917    243.41199    20724    226171.28    59.408475    55.264433   -90.406452    213.36744    434.00684    23.510814     22.16528    1.0341819    435.04102   -3738.6893 
   24300    -101652.7   -91591.898    244.31336    20724    226349.46   -59.422392   -101.76769   -32.327754   -44.171736    434.15617    23.516027    22.170196   0.95951388    435.11569   -3684.9316 
   24400    -101558.1   -91589.816    242.06689    20724    226313.39   -17.733815   -56.063046   -6.8515429    9.7131429    434.06879     23.51652     22.17066    1.0032052    435.07199   -3687.8944 
   24500   -101518.34   -91541.961    242.26327    20724    226318.62    126.08271    203.10001    143.40033    31.747788    434.40786    23.507613    22.162262   0.83367142    435.24153   -3744.5758 
   24600   -101575.83   -91548.835    243.49264    20724    226501.97    7.3631114    171.08746    -25.81395   -123.18417    434.68244    23.509704    22.164234    0.6963778    435.37882   -3730.4112 
   24700   -101532.19   -91539.376    242.66255    20724    226342.21    56.847231    69.194285    155.94524   -54.597828    434.38218    23.509533    22.164073   0.84650932    435.22869   -3747.1812 
   24800   -101588.98   -91563.342    243.45958    20724    226559.32   -43.645191   -120.21609    168.10649   -178.82598    434.53326    23.516716    22.170844   0.77096804    435.30423   -3712.0221 
   24900   -101548.28   -91495.022     244.1303    20724    226308.49   -44.734447   -79.117312    2.6014971   -57.687526    434.52524    23.503911    22.158773   0.77498032    435.30022   -3788.4734 
   25000   -101561.85    -91463.51    245.22499    20724    226346.89   -133.00928   -220.37706   -289.04927    110.39847    434.24261    23.513553    22.167863    0.9162929    435.15891   -3816.0028 
   25100   -101596.74   -91511.522    244.90643    20724    226377.17   -28.655557    -133.0483    15.224683    31.856946    434.21759    23.515803    22.169984   0.92880384     435.1464   -3773.1181 
   25200   -101490.63   -91488.628    242.88552    20724    226261.13   -16.743161    74.506272    105.41676   -230.15251     434.2659    23.508468    22.163069   0.90465049    435.17055   -3801.1704 
   25300   -101500.89    -91490.53    243.08852    20724    226219.35    1.2460107   -58.450389    134.46626   -72.277838     434.3326    23.504493    22.159321   0.87129824     435.2039   -3804.1778 
   25400   -101491.84    -91476.61    243.20675    20724    226191.19   -107.22954    22.453027   -128.26969   -215.87195    434.27065    23.504706    22.159522   0.90227409    435.17293   -3813.3862 
   25500   -101539.83   -91456.947    244.84966    20724    226299.86    36.541987    18.331315   -23.174475    114.46912    434.20554    23.512114    22.166506   0.93483055    435.14037   -3837.8199 
   25600   -101518.45   -91480.685    243.75397    20724    226117.01    27.939574    30.304018   -287.78302    341.29772    434.36781    23.498222     22.15341   0.85369371    435.22151   -3818.9687 
   25700   -101513.25    -91471.23    243.85748    20724    226240.59    30.255796   -57.013514    129.39593    18.384976    434.36066    23.504837    22.159645   0.85727195    435.21793   -3825.6827 
   25800    -101610.6   -91532.974    244.72193    20724    226332.19     27.23768     108.5117    110.25123    -137.0499    434.45426    23.507062    22.161743   0.81046952    435.26473   -3763.3417 
   25900   -101535.52   -91497.208    243.76738    20724     226267.9   -8.8444426   -162.29257    78.450532     57.30871    433.98111    23.516532    22.170672    1.0470457    435.02815   -3798.5219 
   26000   -101519.72   -91458.559     244.3222    20724    226191.18    -29.02728    77.613043   -151.60871    -13.08617     434.1002    23.509319    22.163871   0.98750228     435.0877   -3840.4489 
   26100   -101514.58   -91449.337    244.42141    20724    226216.86    49.516938    48.222538     -8.14843    108.47671    434.10904    23.510415    22.164904   0.98308202    435.09212   -3853.2716 
   26200   -101361.13   -91461.806     240.3923    20724     226103.8    67.041717    160.18693    49.702436   -8.7642123     434.0769    23.505409    22.160185   0.99914795    435.07605   -3845.8522 
   26300   -101489.14   -91434.078    244.17411    20724    226172.25   -67.700092   -206.24889    139.32513   -136.17652    434.14755    23.507053    22.161735   0.96382481    435.11138   -3866.7452 
   26400   -101487.21   -91413.624    244.62395    20724    226186.96    11.904629    8.7735975   -112.29508    139.23537    434.11734    23.508636    22.163227   0.97893032    435.09627   -3891.9013 
   26500   -101434.25   -91400.045    243.66758    20724    226027.08    4.3580856    162.25392   -214.01017    64.830513    433.93742    23.505197    22.159985    1.0688898    435.00631   -3911.5389 
   26600   -101468.01   -91412.881    244.17571    20724    226323.23    124.81722    53.551315    426.99844   -106.09809    434.05872    23.517304      22.1714      1.00824    435.06696    -3897.944 
   26700   -101345.37   -91366.468    242.32456    20724    226024.12    -45.54923   -77.462176    32.166995   -91.352509     434.0325    23.502469    22.157413    1.0213522    435.05385   -3944.6141 
   26800   -101344.12   -91374.311    242.10383    20724    226359.79    31.676616    85.443966   -187.66543    197.25131    434.46644    23.508166    22.162784   0.80438031    435.27082   -3932.8924 
   26900   -101484.62   -91331.183    246.56298    20724    226114.31   -9.1472982   -216.24951   -11.648373    200.45599    434.29469     23.50006    22.155143   0.89025355    435.18495   -3982.1159 
   27000   -101425.21    -91294.22    246.01794    20724    226273.71    74.911718    119.43069   -31.267491    136.57195    434.30922    23.507949     22.16258   0.88298815    435.19221   -4020.5933 
   27100   -101374.07   -91274.704    245.24988    20724    226277.44    23.266692    51.374243    157.66192   -139.23609    434.48795    23.503307    22.158203   0.79362441    435.28158   -4037.3205 
   27200   -101294.08   -91240.277    244.14357    20724    226446.91   -43.825014   -84.288882    36.002629   -83.188788    434.54435    23.510581    22.165061   0.76542312    435.30978   -4063.8903 
   27300   -101398.94   -91270.682    245.95147    20724    226409.81    14.560438    104.40367   -87.177515    26.455155    434.33167     23.51441    22.168671   0.87176463    435.20344   -4038.8381 
   27400   -101341.57   -91277.775    244.38614    20724    226446.54   -58.501907   -66.393633   -31.445833   -77.666254    434.55943    23.510154    22.164659   0.75788605    435.31731   -4027.9988 
   27500   -101333.17   -91299.744    243.64869    20724    226458.35    106.93268    170.62469   -108.84892    259.02226    434.49623    23.512477    22.166848   0.78948277    435.28572   -4014.0094 
   27600   -101305.75   -91284.109    243.36255    20724    226255.04    -63.16075   -145.81047    37.559894    -81.23167    434.52507     23.50114     22.15616   0.77506333    435.30014   -4027.7432 
   27700   -101359.66    -91257.67    245.31365    20724    226646.83    55.627204    142.57812    36.928309   -12.624813    434.83212    23.513172    22.167504   0.62153849    435.45366     -4052.04 
   27800   -101357.04   -91210.796    246.38834    20724    226656.38   -37.010083   -77.261903    63.035226   -96.803571    434.69129    23.517477    22.171562   0.69195632    435.38324   -4093.9705 
   27900   -101238.88   -91238.207    242.85321    20724    226475.63    55.686636    38.399138   -85.744546    214.40532    434.60644    23.510392    22.164883   0.73438162    435.34082   -4077.0509 
   28000   -101283.52   -91177.635     245.4083    20724    226444.79    -31.98063   -159.81254   -228.33333    292.20398    434.70479    23.506132    22.160867   0.68520725    435.38999    -4134.333 
   28100   -101265.26   -91157.946    245.44291    20724    226626.95   -40.527519   -4.2114599    11.170293   -128.54139    434.34843    23.525229    22.178871   0.86338586    435.21181   -4150.9791 
   28200   -101270.33   -91154.034    245.66114    20724     226579.3    2.8317985   -78.258164    33.120998    53.632561    434.51331    23.518293    22.172331   0.78094588    435.29425   -4159.9373 
   28300   -101316.47   -91170.915    246.37157    20724    226474.15    7.8480967   -155.49575     37.10727    141.93277    434.38712     23.51625    22.170405   0.84404082    435.23116   -4149.1116 
   28400   -101250.36   -91140.652    245.50112    20724     226432.1   -7.9994775   -35.731786    11.524424   0.20892963    434.49382    23.511179    22.165625   0.79069216    435.28451   -4180.6391 
   28500   -101238.92   -91133.071     245.4073    20724    226481.98    43.200942   -131.13189    -192.5648    453.29952    434.41956    23.515778    22.169961   0.82782136    435.24738   -4188.6518 
   28600   -101269.38   -91132.656     246.1572    20724    226450.86     -14.6175    98.948065    2.8698982   -145.67046    434.66575    23.507503    22.162159   0.70472691    435.37047   -4188.3056 
   28700   -101256.34   -91151.124    245.39201    20724     226434.7    22.184385    20.032552    22.589279    23.931325     434.5432    23.509978    22.164492   0.76599759     435.3092    -4174.451 
   28800   -101178.04    -91118.35    244.28639    20724    226590.49    63.248715    258.81492     39.40271   -108.47149     434.6131    23.516173    22.170333   0.73105133    435.34415   -4205.1404 
   28900   -101219.86   -91103.258     245.6686    20724    226245.76   -3.5739678   -28.615694    202.37453   -184.48074    434.67411    23.496629    22.151907   0.70054502    435.37465   -4230.4273 
   29000   -101151.37   -91079.455    244.58342    20724    226366.01   -28.608058     16.41847    20.043784   -122.28643    434.75531    23.500677    22.155724   0.65994419    435.41526   -4249.1844 
   29100   -101288.56   -91094.822    247.54156    20724    226473.33     1.046593   -91.364011   -136.63193    231.13572    434.66368    23.508725    22.163311     0.705762    435.36944   -4236.6037 
   29200   -101266.85   -91129.138    246.18107    20724    226299.85   -34.719977    -231.8058   -145.10179    272.74765    434.38372    23.507291    22.161959   0.84574048    435.22946    -4205.678 
   29300   -101328.07   -91131.234    247.61677    20724    226447.09    -6.617949   -67.613226    167.62548    -119.8661    434.40571    23.514342    22.168606    0.8347438    435.24046   -4201.3656 
   29400      -101312   -91143.246    246.93497    20724    226106.08   -22.231329    -125.0382    9.5502504    48.793965    434.35708    23.497945    22.153148   0.85905875    435.21614   -4200.4655 
   29500   -101272.04   -91145.794     245.9026    20724    226309.61   -111.86824   -136.26039   -236.35702    37.012698    434.23932    23.511706    22.166122   0.91793954    435.15726   -4187.1891 
   29600    -101376.5   -91155.212    248.21071    20724    226335.45    56.945118    140.10678    45.884787   -15.156217    434.49444    23.506144    22.160878   0.79038141    435.28482   -4190.9347 
   29700   -101228.13   -91172.734    244.18222    20724    226239.88    63.139766   -51.539091    71.314568    169.64382       434.52     23.50049    22.155547   0.77759851     435.2976   -4175.0428 
   29800      -101241   -91143.954    245.19357    20724    226241.12   -7.9174583    -138.3384  -0.31141983    114.89744    434.30114    23.506475     22.16119   0.88703211    435.18817   -4203.2105 
   29900   -101303.66   -91113.435    247.45634    20724    226480.49   -41.936338   -170.59122    148.96342   -104.18122    434.30419    23.518824    22.172832    0.8855026     435.1897   -4226.6921 
   30000   -101230.34   -91078.027    246.53572    20724    226295.24    26.105565    132.28546    46.461218   -100.42999    434.19188    23.512244    22.166629   0.94165999    435.13354   -4270.0941 
   30100    -101302.8   -91147.253    246.61427    20724    226388.42   -49.704703   -16.422531   -134.75119    2.0596172    434.26521    23.515098     22.16932   0.90499268    435.17021   -4197.2843 
   30200   -101202.39   -91128.465    244.63224    20724    226236.18    32.931205   -145.05265    245.64948   -1.8032208     434.0644    23.512627     22.16699    1.0053993     435.0698   -4223.7561 
   30300    -101111.2   -91114.577    242.75497    20724    226275.81     48.85723    187.19054   -123.99024    83.371384    434.28693    23.508661    22.163251   0.89413356    435.18107   -4237.7123 
   30400   -101232.97   -91105.778     245.9256    20724     226222.6    61.158618    173.80848   -8.4479537    18.115328    433.98272    23.514134    22.168411    1.0462412    435.02896   -4251.6978 
   30500   -101188.12   -91055.499     246.0576    20724    226212.96   -51.374029   -36.518616   -124.40882    6.8053429    434.34803    23.503743    22.158614   0.86358364    435.21162   -4296.6547 
   30600    -101145.1   -91022.547    245.81294    20724       226288    72.051396    34.744702   -7.5877783    188.99726    434.25862    23.510061     22.16457   0.90829109    435.16691   -4334.0413 
   30700   -101126.66   -91063.791    244.36356    20724    226108.96    48.811912    185.26444    73.730519   -112.55923    434.08944    23.505338    22.160118    0.9928784    435.08232   -4297.5682 
   30800    -101112.2   -91036.601    244.67291    20724    226276.65    14.148429    51.794649    -16.74371     7.394348    434.17426    23.511755    22.166168   0.95047169    435.12473   -4317.9261 
   30900   -101167.81    -91078.71    245.00067    20724    226140.42    13.030492    67.833042    52.370496   -81.112063    433.96818    23.510256    22.164755    1.0535104    435.02169   -4282.4629 
   31000   -101173.59   -91088.203    244.91048    20724    226069.42   -132.80972   -90.506469   -221.63623   -86.286452    434.12712    23.502262    22.157218   0.97403949    435.10116    -4267.924 
   31100   -101228.95   -91093.931    246.11565    20724    226040.26    4.8541672   -29.072315   -343.69215    387.32697    433.91967    23.506364    22.161085    1.0777648    434.99744   -4270.6883 
   31200   -101238.72   -91091.724    246.40652    20724    226095.22   -27.991721   -198.24853   -42.538063    156.81143    434.21956    23.501101    22.156124   0.92781753    435.14738   -4272.8849 
   31300   -101218.41   -91069.621    246.45016    20724    225996.94    71.107482    75.347329    84.146748    53.828369     434.0414    23.500815    22.155854    1.0169009     435.0583   -4302.4948 
   31400   -101139.86   -91077.267    244.35708    20724     226175.2    52.750861    130.22997   -111.09137    139.11398    434.15006    23.507139    22.161816   0.96256765    435.11263   -4288.9879 
   31500   -101194.23    -91073.55    245.76752    20724    226187.73    40.778526    70.866708   -19.218426    70.687295    433.98399    23.512287     22.16667    1.0456028     435.0296   -4293.6551 
   31600   -101191.58   -91024.398    246.89678    20724    225969.47   -2.1454921    86.463408   -97.927179    5.0272947     433.9328    23.502327    22.157279    1.0711986      435.004   -4347.9696 
   31700   -101223.09   -91043.144    247.20671    20724    226224.84   -28.516411   -121.66775   -73.578041    109.69655    434.27137    23.506435    22.161152   0.90191558    435.17328   -4321.9111 
   31800   -101164.31   -91022.602    246.27808    20724     225851.3   -58.181314   -43.169839   -46.374425    -84.99968    433.80099     23.49975     22.15485    1.1371071    434.93809   -4355.1641 
   31900   -101157.03   -91009.718    246.41429    20724    226066.51    -75.15192    25.046643    -210.8844   -39.618001    433.83345    23.510064    22.164574    1.1208774    434.95432   -4360.7494 
   32000   -101236.65    -91016.47    248.18377    20724    225926.57   -53.432772   -80.142929   -73.627393   -6.5279945    433.83605    23.502716    22.157646    1.1195739    434.95563   -4361.7915 
   32100   -101171.65   -91051.371    245.75772    20724    225738.97    75.121301   -96.919457    365.58068   -43.297314    433.79206    23.494147    22.149568    1.1415678    434.93363   -4337.3637 
   32200   -101206.42   -91006.482    247.69226    20724    226026.88   -98.944525   -112.38184    26.489969    -210.9417    433.54642    23.515784    22.169966     1.264391    434.81081   -4368.4216 
   32300   -101126.54   -91026.663     245.2623    20724    225685.62    23.409883   -147.44365    400.17243   -182.49913     433.1614    23.508466    22.163067    1.4568989     434.6183    -4365.793 
   32400   -101088.52   -90995.701    245.09101    20724    225693.63   -61.505573   -27.459649    73.700195   -230.75726    433.15562     23.50904    22.163608    1.4597888    434.61541   -4392.8742 
   32500   -101150.95   -91026.224    245.86576    20724    225476.31    64.579177    68.069302    45.076209     80.59202    432.93584    23.503682    22.158557    1.5696785    434.50552   -4376.1336 
   32600   -101123.94   -90956.028    246.91446    20724    225631.63    55.440834   -173.44634    75.211146     264.5577     433.0033    23.509944    22.164461    1.5359508    434.53925    -4441.337 
   32700   -101201.31   -90959.204     248.7163    20724    225549.64   -68.216686   -218.25286   -78.229491    91.832292      432.984    23.506197    22.160928    1.5455997     434.5296   -4438.0299 
   32800   -101107.57   -90945.482    246.77298    20724    225612.33    71.295411    100.91639   -60.742932    173.71278    432.95922    23.510135    22.164641    1.5579891    434.51721   -4456.2332 
   32900   -101192.87   -90883.613    250.34694    20724    225672.51   -27.791164    55.175649    -144.0345    5.4853596    433.05691    23.510619    22.165097    1.5091431    434.56606   -4514.4972 
   33000    -101162.2   -90858.303    250.21679    20724    225961.04   -35.080941     67.46433    -125.9382   -46.768955    433.18067    23.522282    22.176093     1.447264    434.62794   -4530.3585 
   33100   -101127.04   -90891.491    248.55692    20724    225738.64    30.934499   -51.167208    64.700118    79.270588    433.07581     23.51355     22.16786    1.4996948    434.57551   -4507.9071 
   33200   -101108.12   -90873.918    248.52428    20724    225943.22    55.534079    168.10583     288.2219   -289.72549     432.9432    23.527805    22.181299    1.5660015     434.5092   -4522.1196 
   33300   -100978.43   -90893.027    244.91084    20724     225603.2    52.399242    122.79682   -120.39593    154.79684    433.02433    23.507892    22.162526    1.5254328    434.54977   -4513.2435 
   33400   -101048.14   -90885.167    246.79448    20724    225651.44   -69.111497   -4.0315681   -238.29782    34.994899    433.09033    23.508614    22.163207    1.4924358    434.58276   -4515.3909 
   33500   -100989.08   -90896.254    245.09121    20724     225687.9    65.566016    161.84688    294.91689   -260.06572    433.17077     23.50833    22.162939    1.4522136    434.62299   -4509.7767 
   33600   -101056.26   -90902.287     246.5759    20724    225808.16    135.54652    40.593119    163.72031    202.32614    433.18443    23.514222    22.168493    1.4453841    434.62982    -4505.765 
   33700   -101096.62   -90843.814    248.97599    20724    225811.09   -47.886705   -228.37323   -82.539518    167.25263    433.03806    23.518348    22.172384    1.5185688    434.55663   -4558.6696 
   33800   -100993.99   -90846.095    246.42834    20724    226007.04    30.942763    86.927407    52.374855   -46.473974    433.50586    23.515852     22.17003     1.284669    434.79053   -4554.8718 
   33900   -101071.38   -90834.878    248.58008    20724    225721.57    54.417228    97.989333   -105.12059    170.38294    432.97571    23.515379    22.169584    1.5497435    434.52546   -4577.4024 
   34000   -101159.86   -90829.001    250.87149    20724    225895.05   -96.473997   -165.71388   -200.08519    76.377077    433.03624     23.52277    22.176552     1.519482    434.55572    -4570.467 
   34100    -101019.8   -90860.806    246.69801    20724    225601.26    57.172363    88.255031    107.55272   -24.290661    433.17816    23.503617    22.158495    1.4485217    434.62668   -4555.5418 
   34200   -101163.33   -90854.457     250.3375    20724    225843.53    17.157734    138.02236     112.3643   -198.91345     433.3075    23.512724    22.167081    1.3838523    434.69135    -4556.065 
   34300   -100980.43   -90800.071    247.21685    20724     226045.6   -11.090121    135.37732   -142.06922   -26.578464    433.49938    23.518034    22.172087    1.2879096    434.78729   -4601.6729 
   34400   -100992.81   -90773.144    248.17129    20724    226099.83    37.146254   -106.76164   -7.2342153    225.43461    433.20849     23.52875     22.18219    1.4333533    434.64185   -4630.7479 
   34500   -101000.39   -90801.055    247.67747    20724    225796.55   -121.35472   -113.65023   -173.11857   -77.295359    433.20206    23.513139    22.167473    1.4365724    434.63863   -4603.6825 
   34600   -101017.18   -90789.493    248.36602    20724     225966.4    9.9218867    -10.68975   -22.575546    63.030955    433.14243      23.5236    22.177335     1.466385    434.60881   -4621.8173 
   34700   -101016.15   -90758.056     249.1044    20724    225958.05    50.516184   -80.378226    234.16431   -2.2375342    433.25949    23.519987    22.173929    1.4078527    434.66735   -4655.4187 
   34800   -100995.18   -90750.276    248.78402    20724    225909.84    21.802129    139.93672    175.28585   -249.81617    433.18178    23.519587    22.173552    1.4467087    434.62849   -4667.0196 
   34900   -100996.05   -90737.982    249.10386    20724    225942.87   -50.063288   -92.556312    82.567994   -140.20155    433.28518      23.5185    22.172527    1.3950096    434.68019   -4672.7335 
   35000   -100976.59   -90723.902    248.97305    20724    225985.68   -115.17055    4.4712309   -148.52075   -201.46212    433.38334    23.518064    22.172116    1.3459324    434.72927   -4687.7562 
   35100   -101084.37   -90751.618     250.9174    20724    225862.69   -27.476963   -24.316475   -147.15983    89.045417    433.41385    23.510836    22.165301    1.3306763    434.74452   -4669.3463 
   35200   -100966.41   -90753.023    248.01881    20724    225864.27   -1.7859408    99.183046   -39.075274   -65.465595      433.524    23.507931    22.162563     1.275601     434.7996   -4669.5511 
   35300   -100997.86   -90718.912    249.61081    20724    225983.51     65.61986    131.68918    117.83044   -52.660038    433.78951    23.506938    22.161627    1.1428472    434.93235   -4703.7079 
   35400   -100961.68   -90713.805    248.85638    20724    225919.93    22.641578   -88.036152   -36.366935    192.32782    433.63646    23.507779    22.162419    1.2193709    434.85583   -4709.4092 
   35500   -100967.27   -90674.588    249.94427    20724    225933.64   -51.055534   -71.169727   -317.38033    235.38346    433.69623    23.506872    22.161564    1.1894827    434.88572   -4747.8402 
   35600   -100974.03    -90687.65    249.79131    20724    226104.51   -51.647033   -99.935568    77.209879   -132.21541     433.9296    23.509435    22.163981    1.0727986     435.0024   -4728.6285 
   35700   -100947.66   -90679.988    249.33705    20724    225863.83    69.431306    200.55074    12.415103   -4.6719239    433.75949    23.501526    22.156524    1.1578572    434.91734   -4752.1657 
   35800   -100996.38   -90674.195    250.66085    20724    225937.54   -37.124084   -99.625812   -29.077965    17.331524    433.56379    23.510665     22.16514    1.2557052    434.81949   -4750.1349 
   35900   -100908.66    -90663.04    248.80151    20724    225952.01    19.257539   -60.574727    128.72301   -10.375668    433.49562    23.513266    22.167592    1.2897889    434.78541   -4764.7448 
   36000   -100952.53   -90670.662    249.68183    20724    226005.56   -40.858008    137.36988   -321.12443    61.180523    433.35737    23.519803    22.173755    1.3589148    434.71629   -4755.1937 
[...]
  491300   -93497.987   -80728.579    310.08844    20724    221249.93   -11.472536   -35.103474   -267.91687    268.60273    422.71256     23.56222    22.213745    6.6813189    429.39388   -22321.014 
  491400   -93413.289   -80759.325    307.28502    20724    221190.72   -29.189504   -5.0468517   -86.421012    3.8993524     422.2056    23.573207    22.224103    6.9348021     429.1404   -22293.053 
  491500   -93400.199   -80751.788    307.15017    20724    221091.44    41.150174  -0.20754849    439.42127    -315.7632     422.5558    23.558148    22.209905    6.7596987     429.3155   -22309.287 
  491600   -93399.022   -80761.761    306.87942    20724    220994.33    17.375289    -29.01721   -159.50843    240.65151    421.95783    23.569656    22.220755    7.0586825    429.01652   -22303.696 
  491700   -93625.061   -80786.533    311.76694    20724    221206.49    31.022505    79.173992   -123.24257    137.13609    422.21129    23.573889    22.224746    6.9319546    429.14325   -22276.225 
  491800    -93321.83   -80759.756    305.05359    20724     221037.9     36.86086    61.041993   -84.648231    134.18882     422.3011    23.562398    22.213912    6.8870499    429.18815   -22307.187 
  491900   -93354.714   -80777.893    305.41171    20724    221019.46    134.64562     62.14928    162.14341    179.64415    421.93227    23.571711    22.222692    7.0714655    429.00373   -22296.411 
  492000   -93350.785   -80798.556    304.81452    20724    220618.95    72.931236    54.960706    297.46645   -133.63345    421.73139    23.555952    22.207835    7.1719032     428.9033   -22290.761 
  492100     -93465.4   -80773.348    308.20996    20724    220690.28   -7.6912974   -41.004746    114.58011   -96.649252    421.84766    23.556512    22.208364    7.1137692    428.96143    -22312.23 
  492200   -93410.369   -80723.962    308.07286    20724    221145.56   -1.9538568   -109.93998    24.037436    80.040972    421.84272    23.580936     22.23139    7.1162379    428.95896   -22347.351 
  492300   -93417.657   -80750.752    307.59929    20724    220752.85   -147.66782   -53.231039   -125.29638   -264.47603    421.84561    23.559909    22.211566    7.1147932    428.96041   -22332.078 
  492400   -93594.375   -80765.356      311.536    20724    220615.79   -29.957197   -245.19441   -151.26168     306.5845    421.55853    23.560612    22.212229    7.2583363    428.81686    -22329.83 
  492500   -93517.849   -80759.144    309.82852    20724     220903.2   -78.019369   -210.77487    55.336212   -78.619446    421.78423    23.569645    22.220745    7.1454856    428.92971    -22322.47 
  492600   -93487.445   -80726.671    309.87878    20724     220656.3    106.61697    32.813504     51.41243    235.62499    421.66644     23.55976    22.211426     7.204382    428.87082    -22372.96 
  492700   -93523.879   -80767.299    309.77693    20724    220783.91   -16.952486    -208.3645   -14.078109    171.58515    421.83189    23.561949    22.213489    7.1216531    428.95355   -22324.672 
  492800   -93529.618   -80743.086    310.50426    20724    220596.53    4.9181761    -99.83174   -23.075634     137.6619    421.43264    23.563102    22.214576    7.3212777    428.75392   -22358.334 
  492900   -93521.313   -80742.919    310.30666    20724    220413.82   -104.06383    -263.9156   -39.001264   -9.2746106    420.80115    23.571009     22.22203    7.6370258    428.43817   -22362.677 
  493000   -93472.026   -80766.597    308.53481    20724    220362.86    88.071922   -11.367992    146.13984    129.44392    420.86438    23.566513    22.217792     7.605409    428.46979   -22351.339 
  493100   -93441.738   -80713.156    309.09705    20724    220477.56   -103.01661   -138.46779   -164.98217   -5.5998675    421.11533    23.565621    22.216951    7.4799354    428.59526    -22392.15 
  493200   -93555.643    -80736.73    311.29059    20724    220276.06    72.289392    128.75199     138.9176   -50.801414    420.85017    23.562269    22.213791    7.6125171    428.46268   -22388.038 
  493300   -93523.924   -80759.857    309.95874    20724    220508.46   -80.297347   -110.68484    101.05672   -231.26392    420.82647    23.575359    22.226132    7.6243671    428.45083   -22350.248 
  493400   -93643.147    -80757.44    312.91261    20724     220553.6   -19.806643   -77.746243    145.91096   -127.58465    420.60384    23.584011    22.234289    7.7356804    428.33952   -22358.131 
  493500   -93483.885   -80716.848    310.03085    20724    220403.82   -86.198405      116.124   -178.96811    -195.7511    420.66563     23.57427    22.225105    7.7047826    428.37042   -22400.404 
  493600   -93437.209   -80740.071    308.33344    20724       219892    39.030543    31.083535    434.98341   -348.97532    420.26533    23.558094    22.209855    7.9049335    428.17027   -22402.914 
  493700   -93404.464    -80705.08    308.38799    20724    220526.13    81.085657    128.76743   -32.260309    146.74985     420.5356    23.584456    22.234708    7.7698024     428.3054   -22416.117 
  493800   -93546.313   -80738.972     311.0096    20724    220068.34   -141.34575   -405.51001   -284.16263    265.63538    420.32672    23.565817    22.217136     7.874241    428.20096   -22394.954 
  493900   -93426.558   -80757.986    307.63977    20724     220184.6   -1.3941058   -98.872114    123.71829   -29.028498    420.33657    23.571765    22.222743    7.8693164    428.20588   -22379.402 
  494000   -93442.147   -80671.092    310.12843    20724    220369.83   -12.183906    249.01787   -256.11647   -29.453115    420.44647    23.578595    22.229183    7.8143632    428.26084   -22460.811 
  494100   -93422.357   -80666.048    309.77036    20724    220642.58    70.295644    51.789093   0.47670395    158.62113    420.71834    23.585558    22.235747     7.678428    428.39677   -22462.405 
  494200   -93435.388   -80720.374    308.76754    20724    220212.74   -1.4659648    18.510044    -150.6555    127.74756    420.27903    23.574885    22.225684    7.8980833    428.17712   -22419.775 
  494300   -93562.887   -80713.535    312.02977    20724    220182.84   -59.284961   -334.54222   -59.767792    216.45512    420.27808    23.573311    22.224201      7.89856    428.17664   -22427.095 
  494400   -93503.269   -80712.102    310.61682    20724    220184.52   -80.222196    117.61567   -6.1809124   -352.10135    420.66298    23.562613    22.214116    7.7061097    428.36909   -22430.695 
  494500   -93564.013   -80770.085    310.68386    20724    219801.32   -16.410986   -121.77214    73.928608   -1.3894288    420.63632    23.542847    22.195481    7.7194417    428.35576   -22388.856 
  494600   -93493.723   -80746.538    309.54877    20724    220310.71    154.31273    331.35214   -191.04842    322.63448    421.03496    23.558951    22.210663    7.5201197    428.55508   -22406.264 
  494700   -93553.561   -80732.267    311.34842    20724    220409.22   -156.27817   -200.78504    12.952075   -281.00154    420.70785    23.573376    22.224262    7.6836766    428.39152   -22403.872 
  494800   -93472.087   -80712.114    309.85933    20724    220535.37    37.876844    227.99893   -9.7070762   -104.66132    420.93376    23.573793    22.224655    7.5707176    428.50448   -22428.388 
  494900   -93452.919   -80750.264    308.46742    20724    220250.62     22.12467    50.853677   -22.123285    37.643617    420.96801    23.557611    22.209399    7.5535974     428.5216   -22401.955 
  495000   -93458.837   -80785.914    307.74544    20724    220213.14    44.545926    378.96499    109.77837   -355.10558    421.28341    23.546787    22.199195    7.3958962     428.6793   -22370.571 
  495100   -93503.534   -80758.593    309.49429    20724    220401.88   -4.5669985    -84.90395    4.2747069    66.928247    421.26531    23.557381    22.209183    7.4049441    428.67026   -22393.229 
  495200   -93552.283   -80743.652    311.04091    20724    220715.11    46.164412   -104.30999    164.93168    77.871541    421.32013    23.572581    22.223513    7.3775342    428.69767   -22400.089 
  495300   -93557.141   -80723.813    311.64065    20724    220527.47   -48.683828   -184.48778    -57.74173    96.178026     421.0661    23.569666    22.220764    7.5045483    428.57065   -22423.462 
  495400   -93494.937   -80715.224    310.33867    20724    220582.65    108.53099   -172.17325    302.47533    195.29088    421.03815    23.573397    22.224282    7.5185247    428.55668   -22438.809 
  495500   -93421.894    -80733.34    308.12501    20724     220386.5   -31.276566   -56.071676    32.652691   -70.410713    420.74044    23.571248    22.222256    7.6673788    428.40782   -22422.748 
  495600   -93399.885   -80698.311    308.44117    20724    220353.73    39.197279    250.82198    36.657598   -169.88774    420.89566    23.565149    22.216506    7.5897683    428.48543   -22462.985 
  495700   -93570.387   -80722.749    311.98817    20724    220494.11   -69.646547   -266.48915   -133.37525    190.92476    420.89872    23.572569    22.223501    7.5882383    428.48696   -22431.808 
  495800   -93525.154   -80683.716    311.83759    20724    220579.84   -52.465171   -309.47502   -15.136028    167.21553     420.6731    23.583473    22.233781    7.7010498    428.37415   -22467.667 
  495900   -93478.133   -80685.077     310.6627    20724    220427.77     67.12868    90.398962    162.80061   -51.813533    420.78939    23.572084    22.223044    7.6429029     428.4323    -22478.64 
  496000   -93330.821     -80665.9    307.55111    20724    220284.56   -34.834168   -97.767368   -30.685051    23.949914    420.34516    23.576874     22.22756    7.8650182    428.21018   -22501.837 
  496100   -93387.052   -80640.675    309.52915    20724    220332.07    -53.59021   -55.553104   -124.70468    19.487149    420.15856    23.584652    22.234892    7.9583201    428.11688   -22525.974 
  496200   -93444.275   -80630.805    311.15844    20724    220641.88    102.56744      188.183    152.51299   -32.993672    420.17616    23.600733    22.250054    7.9495212    428.12568   -22533.673 
  496300    -93361.39   -80632.552    309.10326    20724    220528.66    180.65486    274.87819    379.19024   -112.10386    420.07344    23.597561    22.247063    8.0008813    428.07432    -22541.52 
  496400   -93317.339   -80642.777    307.78523    20724    220470.27    160.16759    168.10614    61.622416    250.77421    420.16599    23.591839    22.241668    7.9546047     428.1206   -22535.125 
  496500   -93501.933   -80622.166    312.76835    20724    220796.93   -86.156282   -145.30042   -209.52418     96.35575    420.57571    23.597807    22.247295    7.7497427    428.32546   -22534.661 
  496600   -93415.681   -80629.615    310.49297    20724    220824.23   -44.695007    163.38942   -9.3733566   -288.10109    420.80242    23.592907    22.242676    7.6363915    428.43881   -22531.356 
  496700   -93510.913   -80657.044    312.13946    20724    220543.29    114.21343    99.767616    18.130835    224.74184    420.86156    23.576238    22.226961     7.606819    428.46838   -22521.582 
  496800   -93389.072   -80629.832    309.84152    20724    220897.06   -11.183983    23.719782   -116.41827    59.146538    421.00815    23.591031    22.240907    7.5335234    428.54168   -22533.574 
  496900   -93395.422    -80617.37    310.29834    20724    220684.63    39.614793   -21.345264   -174.80564    314.99528    421.17237    23.575088    22.225876    7.4514139    428.62379   -22556.069 
  497000   -93313.637   -80590.082    308.97496    20724    220830.87   -36.058357   -89.981103    105.98741   -124.18138     421.3176    23.578833    22.229407    7.3787983     428.6964   -22576.693 
  497100   -93401.704   -80578.021    311.40645    20724    220844.14   -94.095661     66.10314      5.57451   -353.96463    420.94895    23.589864    22.239807    7.5631259    428.51207   -22585.916 
  497200   -93545.557   -80623.277    313.80073    20724    220614.54   0.07966642   -12.911359   -243.96801    257.11837    421.25644    23.568992    22.220129    7.4093822    428.66582    -22557.81 
  497300   -93367.183   -80601.658    309.99414    20724    220491.42    29.637363   -34.349477   -16.959226    140.22079    420.89194    23.572615    22.223544    7.5916316    428.48357   -22586.926 
  497400   -93512.671   -80644.049    312.49773    20724    220729.13   -67.790965    273.63147   -220.97651   -256.02786    421.01835    23.581777    22.232182    7.5284264    428.54677   -22533.139 
  497500   -93403.804   -80656.228    309.55828    20724    220541.25    35.951784    34.614777   -165.33087    238.57145     420.7608    23.578952    22.229519    7.6571994      428.418   -22532.861 
  497600   -93346.758     -80644.9    308.44807    20724    220400.46    54.686661   -149.13674    245.14632    68.050394    420.86593     23.56848    22.219646    7.6046346    428.47057   -22551.744 
  497700    -93425.51   -80622.743    310.89851    20724    220634.64     63.68078   -11.766386   -6.3673277    209.17605    421.12395    23.573773    22.224637    7.4756272    428.59957   -22570.113 
  497800   -93288.647   -80579.147    308.63365    20724     220549.5   -73.500112   -192.30493   -217.03722    188.84182    420.69137    23.581338    22.231769    7.6919136    428.38329   -22611.404 
  497900   -93443.935   -80545.966    313.21036    20724    220653.31    3.1374348   -150.67925    42.444453    117.64711    420.88417    23.581484    22.231907    7.5955146    428.47969   -22647.754 
  498000   -93228.669   -80558.988     307.6667    20724    220877.05    91.046253    324.55992   -158.10861    106.68746    421.15346    23.585893    22.236063    7.4608678    428.61433   -22631.473 
  498100   -93295.604   -80585.229    308.65491    20724    220846.61   -21.526301    88.366926    80.665344   -233.61117    421.39339    23.577553      22.2282    7.3409067    428.73429   -22603.745 
  498200   -93386.458   -80602.515    310.44141    20724    220556.95   -78.574124    16.657282   -180.05139   -72.328267    421.24175    23.566326    22.217616    7.4167254    428.65847   -22593.555 
  498300   -93531.678   -80595.861    314.12946    20724    220555.61    28.426907   -23.298775   -47.507933    156.08743    421.17346    23.568165     22.21935     7.450872    428.62433   -22609.893 
  498400   -93391.322   -80588.889     310.8904    20724    220640.21   -188.68449   -39.915022   -306.74316   -219.39529    421.38278    23.566829     22.21809    7.3462085    428.72899   -22605.214 
  498500   -93388.858    -80585.47    310.91359    20724    221102.21    56.752999    231.81745    291.80617   -353.36462    422.03844    23.573157    22.224056    7.0183804    429.05682   -22604.825 
  498600     -93381.4   -80574.439    311.00037    20724    221056.73   -34.828703   -54.036014    111.84052   -162.29061    422.09612    23.569122    22.220252     6.989538    429.08566   -22613.815 
  498700   -93414.972   -80578.532    311.71623    20724    220969.84    108.90147    227.62402   -30.137014    129.21741     422.0684    23.565263    22.216614    7.0034002     429.0718   -22622.962 
  498800   -93380.495   -80512.421    312.48441    20724    221026.74    -46.48648    50.250505   -110.94421   -78.765732    422.14715    23.566099    22.217401    6.9640248    429.11118   -22679.923 
  498900   -93292.469   -80488.677    310.92341    20724    221163.21    65.409398   -126.57785    106.10776    216.69828      422.298    23.569162     22.22029    6.8886022     429.1866   -22707.274 
  499000    -93448.87   -80565.073    312.86622    20724    220980.41   -147.53587   -198.91713     73.49005   -317.18052    422.17507     23.56285    22.214339    6.9500669    429.12513   -22629.135 
  499100   -93308.591   -80545.873    309.92599    20724    221216.04    117.59117     263.2721     128.6777   -39.176284    422.10046    23.577492    22.228143    6.9873682    429.08783   -22652.735 
  499200   -93336.133   -80534.858    310.86228    20724     221231.5    -168.9545   -162.53555   -137.20762   -207.12033    422.15769    23.576718    22.227413    6.9587562    429.11644   -22650.226 
  499300   -93335.993   -80546.004    310.58824    20724    221050.09   -121.14559   -383.46518    -57.04824    77.076653    421.77427    23.577759    22.228394    7.1504656    428.92473   -22651.813 
  499400   -93401.167   -80542.919     312.2458    20724    220799.78    -41.37998   -117.35392   -82.625891    75.839876    421.47583    23.572747    22.223669    7.2996833    428.77552   -22671.111 
  499500   -93266.465   -80492.678    310.19477    20724    221072.04   -15.836092    8.6016184   -51.029038   -5.0808578    421.76694    23.579134    22.229691    7.1541276    428.92107   -22711.455 
  499600   -93359.314   -80503.541    312.18571    20724    220874.88   -77.620358    122.10501   -99.376788   -255.58929     421.5804    23.573831    22.224691    7.2473985     428.8278   -22709.381 
  499700   -93245.412   -80501.256    309.47523    20724    221059.19    114.57414    241.34356   -9.0340267    111.41289     421.6692    23.581182    22.231621    7.2030005     428.8722    -22714.28 
  499800   -93315.538    -80483.12    311.61854    20724    221048.92    -153.9203    -81.18206    47.628405   -428.20724    422.07386    23.569327    22.220445    7.0006701    429.07453    -22722.25 
  499900   -93226.341   -80476.601    309.61083    20724    221118.13    51.723436    55.242978   -197.87004    297.79737    422.12125    23.571693    22.222676    6.9769757    429.09822   -22737.006 
  500000   -93227.581   -80497.844     309.1251    20724    220963.42   -42.178933    102.91573   -259.28516    29.832625    422.06717    23.564955    22.216323    7.0040149    429.07119   -22720.176 
Loop time of 50661.4 on 32 procs for 500000 steps with 20724 atoms

Performance: 1.705 ns/day, 14.073 hours/ns, 9.869 timesteps/s
97.3% CPU use with 32 MPI tasks x no OpenMP threads

MPI task timing breakdown:
Section |  min time  |  avg time  |  max time  |%varavg| %total
---------------------------------------------------------------
Pair    | 6287.4     | 8799.1     | 12283      |2338.5 | 17.37
Bond    | 0.32897    | 0.4463     | 0.5682     |   8.1 |  0.00
Kspace  | 8438.9     | 11938      | 14468      |2022.1 | 23.56
Neigh   | 8059.8     | 10001      | 11752      |1365.6 | 19.74
Comm    | 432.14     | 3610.5     | 7148.4     |4287.1 |  7.13
Output  | 4.8673     | 43.338     | 70.208     | 363.2 |  0.09
Modify  | 12885      | 16227      | 21036      |2342.6 | 32.03
Other   |            | 42.16      |            |       |  0.08

Nlocal:    647.625 ave 704 max 605 min
Histogram: 3 4 6 6 1 1 4 4 0 3
Nghost:    7431.34 ave 7820 max 7031 min
Histogram: 2 4 2 4 6 0 4 3 2 5
Neighs:    238315 ave 277124 max 213144 min
Histogram: 3 10 6 0 1 3 3 3 0 3
FullNghs:  476633 ave 554398 max 430564 min
Histogram: 5 10 4 0 1 3 2 4 0 3

Total # of neighbors = 15252259
Ave neighs/atom = 735.971
Ave special neighs/atom = 2
Neighbor list builds = 500000
Dangerous builds not checked
write_data production.R1
PPPM initialization ...
  extracting TIP4P info from pair style
WARNING: Using 12-bit tables for long-range coulomb (../kspace.cpp:316)
  G vector (1/distance) = 0.345933
  grid = 400 48 48
  stencil order = 5
  estimated absolute RMS force accuracy = 0.000401223
  estimated relative force accuracy = 1.20827e-06
  using double precision FFTs
  3d grid and FFT values/proc = 67260 38400
write_restart restartproduction.R1
PPPM initialization ...
  extracting TIP4P info from pair style
WARNING: Using 12-bit tables for long-range coulomb (../kspace.cpp:316)
  G vector (1/distance) = 0.345933
  grid = 400 48 48
  stencil order = 5
  estimated absolute RMS force accuracy = 0.000401223
  estimated relative force accuracy = 1.20827e-06
  using double precision FFTs
  3d grid and FFT values/proc = 67260 38400
Total wall time: 14:04:21
