LAMMPS (30 Jul 2016)
# Sets up LAMMPS simulation for transient melting of ice: TIP4P/Ice
# Ensure cold thermostats do not move
# Thinbox: 16x1x1
# Defects
# Order param l=2

#### setting MD parameters ####
units real
boundary p p p
atom_style full

# read ice box in restart file
### read the equilibrated NPT restart file

read_restart restart.state
  orthogonal box = (0.403596 0.0217786 0.0205322) to (435.672 23.5094 22.164)
  32 by 1 by 1 MPI processor grid
  20736 atoms
  13824 bonds
  6912 angles
  2 = max # of 1-2 neighbors
  1 = max # of 1-3 neighbors
  1 = max # of 1-4 neighbors
  2 = max # of special neighbors


#### force field definition ####
pair_style      lj/cut/tip4p/long 2 1 1 1 0.1577 10.0
pair_modify	tail yes

kspace_style	pppm/tip4p 1.0e-6

bond_style	harmonic
angle_style	harmonic
dihedral_style	none
improper_style	none

bond_coeff	1 450.0 0.9572
angle_coeff	1 55.0 104.52


# reset pair coeff
pair_coeff	* * 0.0 0.0

#OO
pair_coeff	2 2 0.21085 3.1668
#OH
pair_coeff	* 1 0.0000 0.0000

neighbor        2.0 bin
neigh_modify    every 1 delay 1 check no

timestep	2.0
fix		constraints all shake 0.000001 20 0 b 1 a 1
  0 = # of size 2 clusters
  0 = # of size 3 clusters
  0 = # of size 4 clusters
  6912 = # of frozen angles

group water type 1 2
20736 atoms in group water

#*********** SIMULATION PARAMETER TO ADJUST ****************
#Box dimensions
variable lx equal lx
variable ly equal ly
variable lz equal lz

### Temperature of the hot and cold regions ####
variable thi equal 375
variable tlo equal 215
variable runpressure equal 0.986923


# Configuration equilibrated in density and temperature

# Define dx here

variable lx equal lx
variable ly equal ly
variable lz equal lz

variable xlo equal xlo
variable xhi equal xhi

variable boxcentre equal ${xlo}+(${xhi}-${xlo})/2
variable boxcentre equal 0.403595661734954+(${xhi}-${xlo})/2
variable boxcentre equal 0.403595661734954+(435.67160433826-${xlo})/2
variable boxcentre equal 0.403595661734954+(435.67160433826-0.403595661734954)/2

variable dx equal 2.0

#### ADD IN DEFECTS AT THE CENTRE OF THE HOT THERMOSTAT #####
variable y1 equal ${ly}/2.0
variable y1 equal 23.4876428784975/2.0
variable z1 equal ${lz}/2.0
variable z1 equal 22.1434356700048/2.0

region kill1 sphere ${boxcentre} ${y1} ${z1} 3
region kill1 sphere 218.037599999997 ${y1} ${z1} 3
region kill1 sphere 218.037599999997 11.7438214392487 ${z1} 3
region kill1 sphere 218.037599999997 11.7438214392487 11.0717178350024 3
delete_atoms region kill1 compress no bond yes mol yes
Deleted 12 atoms, new total = 20724
Deleted 8 bonds, new total = 13816
Deleted 4 angles, new total = 6908
############


variable thip equal ${thi}*2.0/3.0
variable thip equal 375*2.0/3.0
variable tlop equal ${tlo}*2.0/3.0
variable tlop equal 215*2.0/3.0
variable hbl equal ${boxcentre}-${dx}
variable hbl equal 218.037599999997-${dx}
variable hbl equal 218.037599999997-2
variable hbh equal ${boxcentre}+${dx}
variable hbh equal 218.037599999997+${dx}
variable hbh equal 218.037599999997+2

#***************************************************
## EQUILIBRATION PERIOD - to reach the steady state ###
#run 0

#reset the timestep to start your production run
reset_timestep 0

# define a group to perform averages
#group s1 type 1
###*** SYSTEM THERMOSTATTING: HOT and COLD regions ***###

fix NVE all nve
fix PRESS all press/berendsen aniso ${runpressure} ${runpressure} 500000 couple yz
fix PRESS all press/berendsen aniso 0.986923 ${runpressure} 500000 couple yz
fix PRESS all press/berendsen aniso 0.986923 0.986923 500000 couple yz


### Apply THERMOSTATS ###

#set up the "hot region" in the middle of the box
region hot block ${hbl} ${hbh} 0 ${ly} 0 ${lz} units box
region hot block 216.037599999997 ${hbh} 0 ${ly} 0 ${lz} units box
region hot block 216.037599999997 220.037599999997 0 ${ly} 0 ${lz} units box
region hot block 216.037599999997 220.037599999997 0 23.4876428784975 0 ${lz} units box
region hot block 216.037599999997 220.037599999997 0 23.4876428784975 0 22.1434356700048 units box


#set up the "cold region" at the left end of the box
#region cold block ${cbl} ${cbh} 0 ${ly} 0 ${lz} units box

#set up the "cold region" at the right end of the box
#region cold2 block ${h2bl} ${xhi} 0 ${ly} 0 ${lz} units box


#Cold regions  unification
#region cold union 2 cold1 cold2 units box

#Create group of cold molecules
####group cool_ice region cold
####group cool_ice include molecule

####compute cold_temp cool_ice temp
####fix cold_rescale water temp/rescale 1 ${tlo} ${tlo} 0.0001 1.0
####fix_modify cold_rescale temp cold_temp

#this calculates the temperature using only the atoms in the "hot region"
#compute hot_temp all temp/region hot

# calculate the temperature using only WATER in the "hot region"
compute hot_temp water temp/region hot

#this calculates the temperature using only WATER in the "cold region"
#compute cold_temp water temp/region cold


#set up a basic velocity rescale for the hot region WATER with thip
fix hot_rescale water temp/rescale 1 ${thip} ${thip} 1.0 1.0
fix hot_rescale water temp/rescale 1 250 ${thip} 1.0 1.0
fix hot_rescale water temp/rescale 1 250 250 1.0 1.0
#change the thermostat to only act on the "hot region"
#this is done by passing it the "hot temp" compute that we defined above
fix_modify hot_rescale temp hot_temp

#set up a basic velocity rescale for the cold region
#fix cold_rescale water temp/rescale 1 ${tlop} ${tlop} 1.0 1.0
#change the thermostat to only act on the "cold region"
#this is done by passing it the "cold temp" compute that we defined above
#fix_modify cold_rescale temp cold_temp

### Ensure MOMENTUM CONSERVATION ###

#ensure that linear momentum is conserved despite the "thermostatting" by velocity rescaling
fix cons_mom all momentum 1 linear 1 1 1


thermo 100
thermo_style custom step pe etotal temp atoms vol press pxx pyy pzz lx ly lz xlo xhi  f_hot_rescale

group ox type 2
6908 atoms in group ox
group hy type 1
13816 atoms in group hy
compute KE all ke/atom
variable TEMP atom c_KE*4186.8/(1.3806488*6.02214129)

compute cc1 all chunk/atom bin/1d x center 2 units box
#fix TPROFILE all ave/chunk 1 500 500 cc1 v_TEMP density/number file temp.dat
fix TPROFILEox ox ave/chunk 1 500 500 cc1 v_TEMP density/number file temp-ox.dat
fix TPROFILEhy hy ave/chunk 1 500 500 cc1 v_TEMP density/number file temp-hy.dat

compute orderparam ox orientorder/atom degrees 1 2 nnn 4 cutoff 3.5
compute cc2 ox chunk/atom bin/1d x center 2 units box
#fix ORDERPARAM all ave/chunk 1 500 500 cc2 c_orderparam[1] file order-param.dat
fix ORDERPARAM all ave/chunk 1 500 500 cc2 c_orderparam[1] file order-param.dat

restart 50000 config.restart

run 500000
PPPM initialization ...
  extracting TIP4P info from pair style
WARNING: Using 12-bit tables for long-range coulomb (../kspace.cpp:316)
  G vector (1/distance) = 0.345592
  grid = 405 48 48
  stencil order = 5
  estimated absolute RMS force accuracy = 0.00040612
  estimated relative force accuracy = 1.22302e-06
  using double precision FFTs
  3d grid and FFT values/proc = 67260 38880
Neighbor list info ...
  2 neighbor list requests
  update every 1 steps, delay 1 steps, check no
  max neighbors/atom: 2000, page size: 100000
  master list distance cutoff = 12.3154
  ghost atom cutoff = 12.3154
  binsize = 6.1577 -> bins = 71 4 4
Memory usage per processor = 12.7958 Mbytes
Step PotEng TotEng Temp Atoms Volume Press Pxx Pyy Pzz Lx Ly Lz Xlo Xhi hot_resc 
       0   -103826.38   -95021.974    213.80346    20724    226381.63    9.5565151   -126.84611    27.695844    127.81981    435.26801    23.487643    22.143436   0.40359566     435.6716            0 
     100   -103683.42   -94755.085    216.81289    20724     226437.4    7.0347107   -34.972104    8.4499686    47.626267    435.33093    23.488838    22.144562   0.37213436    435.70307   -264.79704 
     200   -103715.78   -94737.755    218.01973    20724    226402.21    -3.537133    146.70794   -54.048636   -103.27071    435.16612     23.49146    22.147034   0.45453882    435.62066   -281.93837 
     300   -103631.45   -94708.758    216.67595    20724    226280.64   -54.645093   -9.1215601   -32.545193   -122.26852     435.1312    23.486094    22.141976   0.47199965     435.6032   -313.10539 
     400   -103625.47   -94646.561    218.04103    20724    226444.12    -2.763739   -5.7977592     74.57045   -77.063907     435.3257    23.489328    22.145024   0.37475082    435.70045   -373.03828 
     500   -103599.27   -94623.653    217.96124    20724    226495.24     25.76408    41.599214    39.369519   -3.6764935    435.36711    23.490862     22.14647    0.3540441    435.72116   -397.81639 
     600   -103588.27   -94579.098    218.77596    20724    226236.66   -33.611491    126.24233   -211.80847   -15.268336    435.15468    23.483178    22.139227   0.46025779    435.61494   -444.57644 
     700   -103525.42   -94542.063    218.14907    20724     226567.2    35.904389    93.904127    68.383181    -54.57414    435.18376    23.499542    22.154654   0.44571978    435.62948   -478.21606 
     800   -103509.73    -94522.21    218.25033    20724    226347.97     78.96668    102.00698     125.9993    8.8937589    435.24362    23.486554     22.14241   0.41578997    435.65941   -507.36487 
     900   -103564.95   -94485.705    220.47753    20724    226444.15   -37.231388   -53.239529   -214.62258    156.16795    435.39477    23.487466    22.143269    0.3402158    435.73498   -537.59235 
    1000   -103582.67   -94494.147    220.70283    20724    226432.17    37.475823    -48.50279    291.39547   -130.46521    435.17354    23.492814    22.148311   0.45082873    435.62437    -532.6505 
    1100   -103414.72    -94410.58    218.65388    20724    226355.08    36.588614    64.824829    72.006124   -27.065113    435.10292    23.490721    22.146337   0.48613951    435.58906   -619.20847 
    1200    -103408.9   -94368.457    219.53547    20724    226323.63    38.613922    32.236601   -26.703843    110.30901    435.09371    23.489337    22.145033   0.49074398    435.58446   -662.94271 
    1300   -103463.11   -94358.877    221.08443    20724    226393.02   -27.248686    16.404073    34.826393   -132.97653     435.4752    23.482646    22.138724   0.30000245     435.7752   -668.21179 
    1400   -103427.51   -94328.746    220.95172    20724    226400.17     45.19321    102.08852   -81.491973    114.98309    435.23312    23.489546    22.145229   0.42103825    435.65416   -703.26155 
    1500   -103418.73   -94335.121    220.58363    20724    226373.01   -7.6091905    166.81728    -170.0943   -19.550561    435.04992    23.493082    22.148563   0.51263818    435.56256   -694.90825 
    1600   -103486.51   -94300.598    223.06785    20724    226364.91   -79.086154   -127.32066    156.47105   -266.40885    435.32028    23.485366    22.141289   0.37746232    435.69774   -727.36797 
    1700   -103403.96   -94258.056    222.09632    20724     226380.8   -10.445274   -130.43087   -266.66256    365.75761    435.20905    23.489191    22.144895   0.43307701    435.64212   -774.29399 
    1800   -103368.65   -94289.148    220.48385    20724    226386.29   -12.702061     21.44963    30.214059    -89.76987    435.27015    23.487826    22.143609   0.40252498    435.67268   -742.96625 
    1900      -103484   -94298.062    223.06858    20724    226296.81    -17.86737   -46.025175    39.037866     -46.6148    435.23541    23.484122    22.140116   0.41989367    435.65531   -738.84286 
    2000    -103452.9   -94252.989    223.40787    20724    226398.75   -5.1027194    -16.22348   -147.84269    148.75802    435.32152    23.487087    22.142912   0.37684122    435.69836   -782.56534 
    2100   -103377.12   -94177.352    223.40436    20724    226517.33   -36.917242    -50.44793   -126.35641    66.052617    435.25845     23.49494    22.150315    0.4083761    435.66682   -852.61765 
    2200    -103252.7   -94169.804    220.56628    20724    226439.32    58.034083    133.04601     190.6784   -149.62215    435.14476    23.493962    22.149393   0.46521913    435.60998   -864.60017 
    2300   -103364.83   -94148.885    223.79727    20724    226620.84   -16.607263   -46.863654    180.98073   -183.93887     435.4493    23.495156    22.150519   0.31294844    435.76225   -878.20603 
    2400   -103382.66   -94135.392    224.55786    20724    226343.65     24.74544    69.197063   -26.729871    31.769129    435.04525    23.491684    22.147246   0.51497612    435.56022   -905.90475 
    2500   -103350.35   -94126.191    223.99659    20724    226597.75    35.679523   -23.742962    190.17373     -59.3922    435.31516    23.497579    22.152803    0.3800224    435.69518   -908.97543 
    2600   -103314.04   -94085.063    224.11379    20724    226525.71    -1.428012    8.9970858    131.40437    -144.6855    435.15764    23.498095     22.15329   0.45878198    435.61642   -951.47157 
    2700   -103271.26     -94082.8    223.12979    20724    226424.76    37.316782    8.5267434     31.77183    71.651774    435.14088    23.493311    22.148779   0.46715871    435.60804    -957.6315 
    2800   -103260.46   -94034.647    224.03677    20724    226655.39    47.372736    25.949752    254.97273   -138.80427    435.35392    23.499521    22.154634   0.36063955    435.71456   -1002.0284 
    2900    -103259.9   -94033.593    224.04891    20724    226589.12    1.6392772   -3.1957433   -1.2990432    9.4126182    435.33571    23.496577    22.151858   0.36974463    435.70546   -1003.4769 
    3000   -103288.81    -93996.37    225.65487    20724    226622.74    41.174422    184.97737   -285.81323    224.35913     435.2729    23.500015      22.1551   0.40115245    435.67405   -1043.3071 
    3100    -103208.7   -93973.703    224.25986    20724    226491.53    -1.732946    32.757857   -167.93278    129.97608    435.42929    23.488992    22.144707    0.3229557    435.75224    -1065.866 
    3200   -103215.46   -93975.234    224.38677    20724    226512.88    16.724148   -0.4096528   -126.61371    177.19581     435.3343    23.492662    22.148167   0.37044794    435.70475   -1066.3988 
    3300   -103207.93   -93935.766    225.16249    20724    226478.77   -15.594284   -70.439666    46.592468   -22.935655    435.08065    23.497739    22.152954    0.4972749    435.57793   -1106.4566 
    3400   -103219.18   -93885.492    226.65648    20724    226638.95    -56.35832   -39.497936    -119.2659    -10.31112    435.26271     23.50113    22.156151   0.40624318    435.66896   -1150.7715 
    3500   -103185.83   -93878.195    226.02368    20724    226605.81   -41.049494   -181.80436    32.612208     26.04367    435.30376    23.498304    22.153487   0.38572219    435.68948   -1161.1354 
    3600    -103203.6   -93875.351    226.52446    20724    226661.21    -88.24867   -196.35072   -4.7982923   -63.596997    435.30042    23.501267     22.15628   0.38738936    435.68781   -1159.4891 
    3700    -103138.1   -93858.916    225.33298    20724    226624.15   -34.190778    -139.6442    184.38672   -147.31485    435.10192    23.504705    22.159522   0.48664157    435.58856   -1180.9617 
    3800   -103079.27   -93810.192    225.08738    20724    226754.63   -28.107731    38.832126   -241.37949    118.22417    435.37379    23.504128    22.158978   0.35070348     435.7245    -1226.142 
    3900   -103218.89   -93800.118    228.72268    20724    226700.29  -0.35254428   -94.181137    37.949752    55.173752    435.31238     23.50297    22.157886   0.38140976    435.69379   -1241.9176 
    4000   -103059.64   -93819.536    224.38377    20724    226615.34    28.299028    50.412355     -92.5378    127.02253    435.10293    23.504221    22.159065   0.48613502    435.58906   -1224.1645 
    4100   -103093.99   -93789.744    225.94158    20724    226617.31     26.07941   -10.050636    158.91711   -70.628239    435.16994    23.502513    22.157455   0.45262862    435.62257   -1256.2909 
    4200   -103052.31   -93792.696    224.85758    20724     226615.7    9.2831001   -82.402424    14.517145     95.73458    435.34863    23.497606    22.152829   0.36328659    435.71191   -1251.2082 
    4300   -103058.77   -93772.052     225.5158    20724    226696.92    64.737255    55.396638   -105.16925    243.98438     435.2703    23.503931    22.158792   0.40245199    435.67275   -1275.3092 
    4400   -103087.54   -93776.277    226.11188    20724    226555.72  0.050537514    274.12211   -244.51945   -29.451045    435.30148    23.495769    22.151097   0.38686148    435.68834   -1271.1564 
    4500   -103038.91   -93753.157    225.49246    20724    226689.03   -9.7554988    22.018593   -264.98959     213.7045    435.41742    23.499551    22.154662     0.328888    435.74631    -1291.383 
    4600   -103056.73     -93725.4    226.59922    20724    226625.12    -1.146657   -209.53479    213.90274   -7.8079247    435.32088    23.498844    22.153995   0.37715877    435.69804   -1324.4641 
    4700   -103060.75   -93726.377    226.67308    20724    226769.53   -42.328084    16.218812    145.48994     -288.693    435.44835    23.502888    22.157809   0.31342418    435.76178   -1318.4436 
    4800   -103056.27    -93695.16    227.32247    20724    226625.84    10.418558    38.124499    104.34566   -111.21449    435.43766     23.49573     22.15106   0.31876992    435.75643   -1357.3091 
    4900    -103031.6   -93675.195    227.20815    20724    226565.75  -0.90154689    42.351361    116.51301   -161.56902    435.42247    23.493024    22.148509   0.32636344    435.74884   -1377.9777 
    5000   -103052.61   -93652.338    228.27332    20724    226525.27   -39.954683      162.774   -202.05014   -80.587916    435.50707    23.488643    22.144379   0.28406281    435.79114   -1403.5408 
    5100   -103064.62   -93693.275    227.57092    20724     226634.7   -32.195427    71.475974    -96.30196   -71.760294    435.26479    23.500854    22.155891   0.40520733    435.66999   -1361.3502 
    5200   -102942.94   -93614.341    226.53282    20724    226605.93    52.216541   -14.516456    189.50646    -18.34038    435.31188    23.498092    22.153287   0.38166077    435.69354   -1444.8959 
    5300   -102991.86    -93644.28    226.99375    20724    226673.72   -4.6402908   -206.05154    243.55102   -51.420346    435.38768     23.49956    22.154671   0.34376093    435.73144   -1410.5174 
    5400   -103050.85   -93581.344    229.95456    20724    226654.49     23.88243    73.861402    9.4534541   -11.667567    435.32847    23.500161    22.155238   0.37336506    435.70183   -1478.1569 
    5500   -102878.76   -93522.817    227.19695    20724    226679.33    17.091467    29.895925   -211.10875    232.48723    435.26008    23.503295    22.158192   0.40755843    435.66764   -1534.9394 
    5600    -102926.3   -93538.521    227.97008    20724    226845.72    61.841919    63.076947    13.155441    109.29337    435.32754    23.510098    22.164606   0.37383098    435.70137   -1518.2363 
    5700   -102999.39   -93558.947    229.24893    20724    226821.11   -65.035432    98.916561   -49.063694   -244.95916     435.6292    23.500682    22.155728   0.22300122     435.8522   -1492.3791 
    5800   -103002.09   -93537.597    229.83293    20724    226789.55   -28.628268    62.988995   -128.89033   -19.983472    435.56957    23.500655    22.155704   0.25281698    435.82238   -1517.5657 
    5900   -102939.53   -93518.173    228.78544    20724     226842.6    33.012765   -3.9960071    222.21281   -119.17851    435.56656    23.503485    22.158371   0.25432066    435.82088   -1538.2318 
    6000    -102864.8   -93479.045    227.92074    20724    226889.16    91.670905    77.921616    72.978786    124.11231    435.69888    23.502327     22.15728   0.18815999    435.88704   -1580.1625 
    6100    -102882.6   -93470.714    228.55535    20724    226846.81    29.799758   -25.543047    74.656499    40.285821    435.49101    23.505741    22.160498    0.2920947    435.78311   -1587.5197 
    6200   -102988.23   -93517.548     229.9832    20724    226804.55   -3.2685528   -118.82482    174.17481   -65.155647    435.40369    23.505908    22.160656   0.33575394    435.73945   -1542.9086 
    6300   -102856.16   -93488.022    227.49309    20724     226835.4    -22.95667    -33.97844   -56.367005    21.475435    435.47306    23.505635    22.160398    0.3010675    435.77413   -1569.4229 
    6400   -102927.47   -93477.327     229.4845    20724    226899.07    31.659427    156.32663   -119.95701    58.608657    435.54428    23.507011    22.161696   0.26546171    435.80974   -1583.4267 
    6500    -102890.2   -93464.799    228.88357    20724    226976.53    -77.23525    30.265063   -230.79608    -31.17473    435.65645    23.507997    22.162625   0.20937419    435.86583    -1590.254 
    6600   -103036.63    -93491.99    231.77904    20724    226999.24   -48.664503    69.454705   -84.432856   -131.01536     435.7331    23.507105    22.161784   0.17105132    435.90415   -1566.4528 
    6700   -102954.65   -93431.665    231.25338    20724    226888.19    28.457539   -56.137616    170.56631   -29.056075    435.46783    23.508511     22.16311    0.3036862    435.77151   -1634.9717 
    6800    -102946.2   -93420.993    231.30716    20724    226814.87   -138.20306    -59.41942   -298.22409   -56.965679    435.52422    23.503191    22.158094    0.2754922    435.79971   -1638.1944 
    6900   -102797.97    -93412.07    227.92425    20724    226753.47     14.77037   -50.222108   -76.171718    170.70494     435.3884    23.503674    22.158549   0.34340027     435.7318   -1656.6925 
    7000    -102828.9   -93375.282    229.56879    20724    226738.29   -4.9219683    80.328212   -92.296583    -2.797534    435.35575    23.503769    22.158639   0.35972324    435.71548   -1692.0458 
    7100   -102912.47   -93363.299    231.88926    20724    226689.79   -64.492517   -6.1880247    7.3166588   -194.60618    435.53759    23.496349    22.151643   0.26880657    435.80639   -1704.7896 
    7200   -102771.64   -93353.842     228.6989    20724    226792.36   -49.810137    64.181358   -180.51861   -33.093163    435.27942    23.508632    22.163224     0.397892    435.67731   -1712.1196 
    7300   -102867.92   -93312.358     232.0443    20724    226647.17   -114.75392   -106.51672   -201.22401    -36.52104    435.28081    23.501068    22.156093   0.39719364    435.67801   -1755.1248 
    7400    -102823.3    -93347.95    230.09648    20724    226540.37   -32.366533    77.772289   -22.092772   -152.77912    435.34886    23.493694    22.149141   0.36316988    435.71203    -1729.094 
    7500    -102827.2   -93308.835    231.14117    20724    226565.87     7.001177    1.3156711   -241.69007    261.37793    435.24622    23.497786    22.152999   0.41449042    435.66071   -1771.2917 
    7600   -102804.07   -93319.542     230.3195    20724    226519.02    63.737068    37.180494    109.08733     44.94338    434.98191    23.502494    22.157437   0.54664359    435.52856   -1763.6734 
    7700   -102747.17   -93297.405    229.47529    20724     226530.7   -18.684677    71.120076   -231.30566    104.13155    435.08879    23.500213    22.155287    0.4932073    435.58199   -1783.5047 
    7800   -102848.74   -93279.868    232.36759    20724    226703.11   -117.66016    -213.5551   -24.275242   -115.15014    435.16624    23.507062    22.161743   0.45448056    435.62072   -1793.9371 
    7900   -102770.61   -93314.961      229.618    20724    226651.26    57.498427   -138.66881    77.941191     233.2229    435.27505    23.501436    22.156439    0.4000738    435.67513   -1767.4688 
    8000   -102791.99   -93281.861    230.94101    20724    226700.89   -69.320716    32.267611   -204.07734   -36.152423    435.24744    23.504754    22.159568   0.41387755    435.66132   -1795.7845 
    8100   -102798.79   -93286.976    230.98198    20724    226600.43   -39.449046   -45.992461    30.212658   -102.56734    435.21495    23.500423    22.155484   0.43012478    435.64508   -1795.8243 
    8200   -102702.94   -93265.734    229.17025    20724    226569.82    53.023806   -59.650592   -142.86562    361.58763    435.34193    23.495408    22.150757   0.36663336    435.70857   -1822.0649 
    8300   -102808.33   -93303.243    230.81873    20724    226474.84    79.590157    202.43718    93.025003   -56.691709    435.29057    23.491869     22.14742   0.39231668    435.68288     -1789.49 
    8400    -102699.7   -93224.124    230.10195    20724     226557.4   -115.36125   -151.70197   -62.241494   -132.14028    435.39323     23.49338    22.148845   0.34098584    435.73421   -1857.2733 
    8500   -102772.86   -93262.251    230.95262    20724    226425.46    84.717588    128.18608   -106.88766    232.85435     435.2304    23.490931    22.146536   0.42239884     435.6528   -1833.0255 
    8600   -102790.74   -93249.878    231.68733    20724    226442.02   -29.725777   -26.124553   -106.04971    42.996927     435.1117    23.494994    22.150366   0.48174864    435.59345   -1843.0539 
    8700   -102682.79   -93190.307    230.51258    20724    226383.12    11.226277    288.39312   -93.093811   -161.62048    435.08877    23.492557    22.148069   0.49321551    435.58198   -1904.4975 
    8800   -102743.06   -93220.636    231.23974    20724    226443.95    67.712444    122.83777    119.96543   -39.665861      435.213     23.49236    22.147883   0.43109845     435.6441   -1877.3293 
    8900   -102731.79   -93224.024    230.88365    20724    226296.15    6.6402802   -25.861563    117.05427   -71.271865    434.95447     23.49167    22.147233   0.56036267    435.51484   -1876.4876 
    9000   -102694.92   -93196.412    230.65895    20724    226431.32   -33.795933   -112.33149     84.62244   -73.678749    434.93652     23.49917    22.154303   0.56933895    435.50586   -1897.4342 
    9100   -102818.97   -93214.737    233.22634    20724    226476.61   -13.798369    82.786812   -346.65883    222.47691    434.83385    23.504295    22.159134   0.62067576    435.45452   -1881.4783 
    9200   -102795.09   -93206.425    232.84827    20724    226456.63    38.914068    -48.27964   -134.76983    299.79167    435.10313    23.495984    22.151299   0.48603461    435.58917   -1893.1582 
    9300   -102656.03   -93182.597    230.05004    20724    226430.13   -30.584777  -0.57594681    -59.82028   -31.358103    434.91552    23.499676     22.15478    0.5798405    435.49536   -1915.0522 
    9400   -102714.83   -93161.277    231.99569    20724    226607.43     68.37557    173.49069   -54.174004    85.810026    435.14443     23.50269    22.157622    0.4653843    435.60982   -1938.6808 
    9500   -102766.03   -93159.821    233.27433    20724    226410.96     45.91256    120.20773    1.2683732    16.261571    435.22289    23.490382    22.146018   0.42615626    435.64904   -1945.1345 
    9600   -102740.17   -93137.068    233.19881    20724    226483.37   -14.929053   -221.73851   -94.427232    271.37859    435.11626    23.497016    22.152272   0.47946944    435.59573   -1963.9466 
    9700   -102632.49   -93089.102    231.74873    20724    226569.76    66.240444    -2.154879    74.392114     126.4841    435.08922    23.502227    22.157185   0.49298756    435.58221   -2014.9053 
    9800   -102753.61   -93117.264     234.0062    20724    226403.68    -60.48366    145.07561   -177.55447   -148.97212    435.10449      23.4932    22.148675   0.48535746    435.58984   -1986.2187 
    9900   -102714.83   -93111.444    233.20572    20724    226543.55  -0.71396824   -5.4837346   -99.027436    102.36927    435.02258    23.502668    22.157601   0.52630991    435.54889   -1992.8774 
   10000    -102584.6   -93107.987    230.12715    20724    226423.69    33.835078   -46.029774   -149.70455    297.23955    434.99134    23.497293    22.152534   0.54192927    435.53327   -2000.5009 
   10100   -102626.82   -93094.016    231.49181    20724    226601.14     52.61514    6.0007341    88.974212    62.870473    435.09801    23.503617    22.158496   0.48859686     435.5866   -2011.3209 
   10200   -102601.21   -93068.878     231.4802    20724    226498.38   -26.023131   -140.82174    310.39294    -247.6406    435.09947    23.498248    22.153434   0.48786583    435.58733   -2036.0648 
   10300   -102625.35   -93025.725    233.11431    20724    226576.66    66.009235    223.22963   0.13958548   -25.341506    435.04713    23.503722    22.158595   0.51403275    435.56117   -2082.1614 
   10400   -102664.37    -93038.59    233.74951    20724    226507.87   -39.718737   -156.74399   -68.739646    106.32743     435.3481     23.49203    22.147571    0.3635476    435.71165   -2065.9424 
   10500   -102585.34   -92977.436    233.31534    20724    226580.88   -21.869997   -25.275171    29.182289   -69.517108    435.22684    23.499088    22.154226   0.42417985    435.65102    -2129.008 
   10600   -102601.78    -92995.18    233.28365    20724    226672.76    7.0329066    246.97641   -204.31407   -21.563623    435.24907    23.503252    22.158152   0.41306481    435.66214   -2111.0507 
   10700   -102554.58   -92984.037    232.40828    20724    226456.05   -26.202371    35.294199   -18.837541    -95.06377    435.31394    23.490263    22.145906   0.38062838    435.69457   -2128.2209 
   10800   -102572.87   -92989.891    232.71009    20724    226421.67  -0.39368312    -62.20331    23.297531     37.72473    435.09892    23.494284    22.149697   0.48814009    435.58706   -2123.3573 
   10900   -102598.46   -92955.226    234.17349    20724    226406.57   -84.545835   -156.92788    214.01226   -310.72189    434.98916    23.496464    22.151752   0.54301793    435.53218   -2155.0043 
   11000   -102528.13   -92956.712    232.42946    20724    226439.88    17.430876   0.85847608    165.05994   -113.62579    434.99463    23.498045    22.153242   0.54028714    435.53491   -2158.8286 
   11100   -102444.64   -92930.733    231.03273    20724     226505.6    7.9793292    85.317487    71.241779   -132.62128    435.05312    23.499874    22.154967   0.51103829    435.56416   -2182.7318 
   11200   -102530.64   -92909.536    233.63609    20724    226610.58    57.217923     109.2872    75.677951   -13.311384    435.26156    23.499691    22.154794    0.4068213    435.66838   -2203.8011 
   11300   -102571.34   -92976.382    233.00115    20724    226457.17    19.957588   -81.155541    31.856979    109.17133    435.03056    23.497971    22.153173   0.52232055    435.55288   -2140.7391 
   11400   -102612.19   -92951.534     234.5965    20724    226422.87   -37.163861   -128.22682   -42.394985    59.130227     434.9199    23.499181    22.154313   0.57765121    435.49755   -2164.2524 
   11500   -102596.78    -92925.03    234.86588    20724     226544.6    -90.15877   -256.55904   -16.210656     2.293386    435.02087    23.502769    22.157696   0.52716678    435.54803   -2186.0086 
   11600   -102458.35   -92907.182    231.93758    20724     226617.2    104.74564    142.31566   -20.320103    192.24137    435.06444    23.505357    22.160136   0.50537926    435.56982   -2211.9149 
   11700    -102425.1   -92886.234    231.63894    20724       226585    36.271983   -105.44125     195.9815    18.275695    434.99957     23.50544    22.160214   0.53781347    435.53739   -2231.3813 
   11800   -102507.03   -92899.521    233.30583    20724    226474.73   0.18772828    116.09497   -67.926282     -47.6055    434.84498    23.503896    22.158759   0.61511146    435.46009   -2221.5242 
   11900   -102500.86   -92898.263    233.18652    20724    226502.76     52.71316    54.509326    73.864214     29.76594    434.74393    23.508082    22.162705    0.6656327    435.40957   -2225.7146 
   12000   -102490.98   -92873.224    233.55461    20724    226417.27    11.879147    131.19473   -51.322878   -44.234413    434.93006    23.498616     22.15378   0.57256826    435.50263   -2251.5543 
   12100   -102484.96   -92879.639     233.2527    20724    226481.85    -62.80261    -124.8893   -13.074928   -50.443602    434.95503    23.501292    22.156304   0.56008343    435.51512   -2239.7764 
   12200   -102500.23   -92861.001    234.07616    20724    226609.11    32.914052   -26.699529     79.94259    45.499096     435.1959    23.501387    22.156393   0.43964806    435.63555   -2261.7838 
   12300   -102509.03   -92872.917    234.00044    20724    226378.25   -13.206146   -85.380892    242.82314   -197.06068    434.95283    23.495976    22.151292   0.56118403    435.51402   -2253.8969 
   12400   -102536.97   -92858.325    235.03336    20724    226649.51    3.3546461    129.78967    96.251499   -215.97723    435.28764    23.501005    22.156033   0.39377768    435.68142   -2263.7504 
   12500   -102538.79   -92837.768    235.57673    20724    226436.85   -18.806588   -116.36376   -24.588575    84.532566     434.8583     23.50157    22.156566   0.60845216    435.46675   -2290.6593 
   12600   -102519.75   -92854.919    234.69773    20724    226463.06    56.861833    99.909645    -12.91757    83.593425    434.85225    23.503094    22.158003   0.61147685    435.46372   -2277.0547 
   12700    -102527.9   -92832.833    235.43208    20724    226408.23   -20.238164    -35.26379   -56.233892    30.783189    434.88449    23.499378    22.154499   0.59535388    435.47985   -2295.7683 
   12800   -102527.59   -92820.862    235.71521    20724    226309.59   -83.168377    63.203557   -346.73097    34.022278    434.88013    23.494376    22.149783   0.59753365    435.47767   -2310.1202 
   12900   -102476.48    -92809.49    234.75026    20724    226572.45   -68.300411   -132.60401    197.70446   -270.00169    434.67884    23.513459    22.167774   0.69818083    435.37702   -2315.2654 
   13000   -102452.62     -92778.8    234.91618    20724    226272.05    2.9049693    49.195084   -70.748311    30.268135    434.64686     23.49873    22.153888   0.71416991    435.36103   -2359.2131 
   13100   -102364.68   -92786.957    232.58245    20724    226301.41  -0.24108562    104.44035   -92.212005   -12.951598    434.60142    23.501483    22.156484   0.73688825    435.33831   -2349.2512 
   13200   -102377.93   -92737.761    234.09886    20724    226437.68   -18.159903   -94.178779   -102.91052    142.60959    434.82047    23.502636    22.157571   0.62736523    435.44783   -2395.9677 
   13300   -102342.52   -92738.755    233.21497    20724    226458.92    38.884122    114.00199    226.75675   -224.10637    434.88107      23.5021    22.157066   0.59706375    435.47814   -2396.5443 
   13400   -102430.01   -92747.687    235.12266    20724    226418.05    1.3483851    -87.84946     223.9692   -132.07459    434.78053    23.502696    22.157628   0.64733589    435.42786   -2388.5547 
   13500   -102500.47   -92723.155    237.42928    20724    226509.15   -18.351648    93.288783    23.135339   -171.47907     434.9314    23.503347    22.158241   0.57189809     435.5033   -2411.7325 
   13600   -102377.38   -92688.112    235.29135    20724    226406.24    31.557945     33.24731    35.419471    26.007054    434.86358     23.49984    22.154934   0.60581175    435.46939   -2452.1987 
   13700   -102331.84   -92667.979    234.67422    20724    226441.47    40.334598    115.80751   -42.313732    47.510021    435.05803    23.496415    22.151706   0.50858597    435.56661   -2471.3655 
   13800   -102440.13   -92687.849    236.82151    20724    226435.06    41.552713   -46.739613    142.71247    28.685281    435.18452    23.492668    22.148173   0.44534019    435.62986   -2454.5408 
   13900   -102386.83   -92672.272    235.90547    20724    226616.81    16.389632   -218.75922    45.466995    222.46112    435.00296    23.506998    22.161683   0.53612092    435.53908   -2462.6445 
   14000   -102332.37   -92663.432    234.79768    20724    226356.96   -4.8710067    149.56378    62.535896   -226.71269    434.79842    23.499042    22.154183   0.63838984    435.43681    -2481.164 
   14100   -102459.89   -92652.988    238.14773    20724    226467.88   -5.3426789   -8.4328295   -24.342632    16.747425    435.05882    23.497764    22.152977   0.50819011    435.56701   -2490.1373 
   14200   -102352.43    -92638.96    235.87885    20724    226241.75   -66.663128   -48.008255   -51.874288   -100.10684    434.69404    23.495882    22.151203   0.69057964    435.38462   -2507.0924 
   14300   -102326.57   -92644.353    235.11992    20724    226404.65   -14.715873    329.42896  -0.45978048    -373.1168    435.07814    23.493961    22.149393   0.49853094    435.57667   -2499.5265 
   14400   -102443.35   -92605.787    238.89248    20724    226393.67   -76.698132   -28.932017   -315.69601    114.53363    435.04583    23.494264    22.149678   0.51468407    435.56052   -2538.2024 
   14500   -102337.79   -92566.098    237.29289    20724    226461.08   -1.4823346   -98.924049    6.4314813    88.045563    434.97757    23.499606    22.154714   0.54881379    435.52639   -2579.3587 
   14600   -102293.06   -92539.199    236.85975    20724    226336.46    6.2008564   -117.43136   -12.156322    148.19025    434.84743    23.496654    22.151931   0.61388342    435.46132   -2610.5038 
   14700   -102271.84   -92566.377    235.68456    20724    226399.21   -51.409929   -104.76981     158.4797   -207.93968    434.95448    23.497019    22.152275   0.56036062    435.51484   -2577.7238 
   14800   -102227.12   -92565.921     234.6096    20724    226425.78    43.278292    119.98652    275.66976    -265.8214    435.09756    23.494534    22.149932   0.48882038    435.58638   -2584.2321 
   14900   -102279.06   -92570.562    235.75823    20724     226433.5   -64.596357   -109.43218   -201.02665    116.66976    434.88314    23.500725    22.155769   0.59603037    435.47917   -2575.3623 
   15000   -102327.93    -92549.46    237.45752    20724    226479.93    52.638009   -120.51698     84.93139    193.49961    434.88924     23.50297    22.157885   0.59298061    435.48222   -2603.3884 
   15100   -102323.63   -92531.861    237.78032    20724    226417.38    2.1200084    138.51341   -275.99246    143.83908    434.98203    23.497218    22.152463   0.54658477    435.52862   -2621.0208 
   15200   -102208.92   -92509.172    235.54585    20724    226702.21   -39.381295   -31.581071    22.653703   -109.21652    435.01469     23.51111     22.16556   0.53025385    435.54495   -2634.0522 
   15300      -102256   -92529.047    236.20631    20724    226498.93   -13.810844    125.25131    44.019975   -210.70382    434.87254    23.504407     22.15924    0.6013317    435.47387   -2623.2026 
   15400    -102183.4   -92496.581    235.23179    20724       226452   -100.80363    -220.4356   -193.43403    111.45875    435.00356    23.498432    22.153608   0.53582165    435.53938   -2651.9986 
   15500   -102271.99   -92468.471    238.06562    20724     226583.9    12.088268    50.608908    113.82938   -128.17348    434.95719    23.506527    22.161239   0.55900342     435.5162   -2683.2119 
   15600   -102135.37   -92476.822    234.54523    20724    226371.99    25.153514   -58.057881    27.122688    106.39573    434.75638    23.500959    22.155989   0.65941122    435.41579   -2681.5472 
   15700   -102251.85   -92441.949    238.22075    20724    226648.13     47.41577    233.12304   -157.92503    67.049301    434.95796    23.509838    22.164361   0.55862029    435.51658   -2710.7035 
   15800   -102167.18   -92411.656    236.90016    20724    226365.03   -60.543121    174.08039   -147.19928   -208.51048    434.91676    23.496264    22.151563   0.57922032    435.49598   -2744.1372 
   15900   -102225.64   -92458.591    237.18013    20724    226469.87   -14.925249   -81.884195    45.275773   -8.1673254    434.77628    23.505501    22.160272   0.64946051    435.42574   -2699.4409 
   16000   -102085.15   -92397.305    235.25673    20724    226493.88    57.253209    204.92535   -313.20519    280.03947    434.79021    23.506371    22.161092   0.64249574     435.4327   -2763.0627 
   16100   -102138.58   -92424.505    235.89369    20724    226484.77    123.56541    187.42574    122.19769    61.072791    434.82631    23.504922    22.159726   0.62444597    435.45075   -2741.1527 
   16200   -102155.21   -92368.328    237.66165    20724    226448.12   -10.936673   -312.54342   -68.134372    347.86777    434.79912    23.503755    22.158625   0.63804037    435.43716   -2794.3221 
   16300   -102117.61   -92386.198    236.31477    20724     226445.4   -23.351671   -41.052475    198.91449   -227.91703    434.80246    23.503523    22.158407   0.63637177    435.43883   -2775.1547 
   16400    -102068.6   -92376.489    235.36032    20724    226345.27    29.869538  -0.72266505   -111.50673    201.83801    434.79647    23.498488     22.15366   0.63936368    435.43584   -2790.3095 
   16500   -102194.84   -92384.241    238.23755    20724       226326   -23.265056    49.885532   -228.09619    108.41548    434.96867    23.492836    22.148332   0.55326606    435.52193     -2783.55 
   16600    -102131.5   -92333.158    237.94006    20724     226379.2   -37.344502   -239.56781   -40.230339    167.76464    434.78719      23.5005    22.155557   0.64400326     435.4312    -2832.263 
   16700   -102108.69   -92345.132    237.09533    20724    226384.39   -33.457579    52.015747   -99.275707   -53.112776    434.75658    23.501597    22.156591   0.65930827    435.41589   -2821.2338 
   16800    -102047.1   -92326.627    236.04895    20724    226297.86    -7.684497   -26.932207    31.734544   -27.855828    434.71226    23.498303    22.153485    0.6814725    435.39373   -2843.1016 
   16900   -102020.04   -92328.987    235.33451    20724    226381.11    43.839107    105.30337   -202.53396    228.74792    434.82694    23.499525    22.154638   0.62412899    435.45107   -2840.9362 
   17000   -102156.84   -92341.254    238.35865    20724    226291.36   -64.855364   -186.01669    57.857381   -66.406784    434.79128     23.49583    22.151154   0.64195952    435.43324   -2828.5911 
   17100   -102154.69   -92344.571    238.22596    20724    226265.37   -19.741772  -0.81378235   -293.65638    235.24485    434.60579    23.499494    22.154608   0.73470585    435.34049    -2830.494 
   17200   -102111.17   -92330.827    237.50291    20724    226372.67   -3.3516109   -144.80585    11.372435    123.37858    434.80072    23.499796    22.154893   0.63724179    435.43796   -2843.0271 
   17300   -102150.88   -92341.556    238.20674    20724     226313.6    63.921928    149.48538    123.55542   -81.275019    434.75343    23.498007    22.153207   0.66088535    435.41431   -2838.8368 
   17400   -102127.13    -92303.06    238.56475    20724    226385.81   -86.592696   -84.857859   -158.62971   -16.290522    434.57898    23.506472    22.161187   0.74810838    435.32709   -2867.8716 
   17500   -102031.14   -92274.119    236.93661    20724    226353.06    33.662754   -112.08843    84.256363    128.82033    434.67639    23.502138    22.157101   0.69940702    435.37579   -2903.3458 
   17600   -102079.43   -92222.523    239.36213    20724    226380.26   -3.3514225    5.5266079    39.844995    -55.42587    434.61994    23.505076    22.159871   0.72763133    435.34757   -2953.4519 
   17700   -102011.99   -92210.098    238.02609    20724    226320.91    28.108191    95.081625   -12.706082    1.9490299    434.72774    23.499081    22.154219   0.67373147    435.40147   -2970.0784 
   17800   -102097.64   -92254.421    239.02967    20724    226416.08    -36.50911    21.044144   -68.102117   -62.469356    434.87346    23.500083    22.155164   0.60087166    435.47433   -2922.4339 
   17900   -102087.08   -92232.085    239.31566    20724    226507.95   -19.598326   -63.652467    272.27886   -267.42137    434.78543     23.50723    22.161901   0.64488309    435.43032   -2943.4464 
   18000   -102038.92   -92198.774    238.95516    20724    226555.14    41.841925     140.0691    273.99759   -288.54092    435.01893    23.503368    22.158261   0.52813421    435.54707   -2977.9254 
   18100   -101985.74   -92217.633    237.20568    20724    226486.81   -41.952143   -181.20791    66.419453   -11.067968    434.91985      23.5025    22.157442   0.57767624    435.49752   -2958.3754 
   18200   -102004.68   -92197.717    238.14931    20724    226537.73   -59.338962    153.78144   -372.56521    40.766888     434.7397    23.510011    22.164524   0.66775162    435.40745   -2976.5449 
   18300   -101928.57   -92175.527    236.84004    20724    226378.14    73.717827    144.06509   -73.739899    150.82829    434.69717    23.502879    22.157799   0.68901599    435.38618   -3012.7567 
   18400   -101991.25   -92139.998    239.22475    20724    226473.56    22.693865    53.588682   -93.497505    107.99042    434.66594    23.508676    22.163265   0.70463136    435.37057   -3044.5469 
   18500   -101916.07   -92127.374    237.70584    20724    226201.02   -39.979825   -124.09527    50.624073    -46.46828    434.70469    23.493479    22.148938   0.68525595    435.38994    -3062.077 
   18600   -101962.26   -92081.445    239.94271    20724    226432.11    5.2195326   -81.468914    108.28439   -11.156873    434.91748    23.499725    22.154827   0.57885997    435.49634   -3106.0002 
   18700   -101908.35   -92081.159    238.64063    20724    226340.71    15.152531    105.80353   -269.69061    209.34468    434.72638    23.500146    22.155223   0.67440767    435.40079   -3108.7015 
   18800   -101926.04   -92103.743    238.52163    20724    226318.54   -4.0946765   -98.947149   -130.22133    216.88445    434.59383    23.502578    22.157516   0.74068467    435.33452   -3086.2427 
   18900   -101983.35   -92104.193    239.90256    20724    226358.23   -59.592619    46.198643   -315.79686    90.820357     434.7103     23.50149     22.15649      0.68245    435.39275   -3083.9021 
   19000   -101962.71   -92113.221    239.18209    20724    226453.98    68.873604    71.819873    229.38273   -94.581795    434.60393    23.509337    22.163888   0.73563544    435.33956   -3079.5171 
   19100   -101945.56   -92078.962    239.59755    20724     226218.8   -39.925686    66.857426    98.493491   -285.12797    434.40443    23.502521    22.157462   0.83538664    435.23981   -3117.6038 
   19200   -101962.64   -92055.597    240.57957    20724    226329.36   -35.612361     43.90218   -107.94145   -42.797818    434.59025    23.503237    22.158137   0.74247748    435.33272    -3136.425 
   19300   -101950.76   -92067.846    239.99359    20724     226266.7    24.473227    26.462834   -2.6123548    49.569203    434.48833    23.502739    22.157668   0.79343485    435.28177   -3131.0531 
   19400   -101801.62   -92032.167    237.23833    20724    226193.11    76.671171    175.56597    20.319103    34.128435    434.48215    23.499084    22.154222   0.79652737    435.27867   -3170.7026 
   19500   -101972.86   -92064.267     240.6173    20724     226101.7   -28.661659   -92.842601   -93.950737    100.80836    434.30754    23.499058    22.154197   0.88383083    435.19137   -3138.2809 
   19600   -101912.06   -92028.547    240.00819    20724    226273.45    -20.95047    46.997735   -38.042234   -71.806912    434.73384    23.496452     22.15174   0.67067797    435.40452   -3168.6787 
   19700   -101886.19   -92019.321    239.60409    20724    226151.81    24.634727   -67.427581    184.50282   -43.171055    434.45397    23.497701    22.152918   0.81061408    435.26459   -3185.5234 
   19800   -101798.79   -91971.862    238.63416    20724    226304.25     43.75129    165.37777    130.38348   -164.50738    434.21503    23.512085    22.166479   0.93008364    435.14512    -3228.506 
   19900   -101808.36   -91963.507    239.06939    20724    226291.91    51.571128     12.82885   -1.2472191    143.13175    434.23704    23.510848    22.165313   0.91908171    435.15612    -3240.412 
   20000   -101823.97   -91954.749    239.66117    20724    226424.75    64.059611    59.322328    110.06389    22.792617    434.33522     23.51509    22.169312   0.86999134    435.20521    -3244.728 
   20100   -101810.19    -91932.11    239.87626    20724    226372.98   -53.828336   -121.33892   -68.491949    28.345859    434.62259    23.504627    22.159448   0.72630626    435.34889     -3267.11 
   20200   -101814.72    -91941.05    239.76925    20724    226505.26    76.548747   -84.648776     103.1584    211.13661    434.75198    23.507994    22.162622   0.66160826    435.41359   -3261.0909 
   20300   -101845.78   -91910.566    241.26386    20724    226508.57    2.7138874   -87.025547   -78.541434    173.70864    434.60995    23.512007    22.166406   0.73262645    435.34257   -3288.4232 
   20400   -101793.91   -91917.684    239.83118    20724    226356.66    30.544385    103.43909    3.7203372   -15.526276    434.55485    23.505612    22.160376    0.7601729    435.31503   -3287.5208 
   20500      -101877   -91922.421    241.73408    20724    226381.22     14.27479   -14.780426     166.2344    -108.6296    434.55312    23.506933    22.161622   0.76103849    435.31416   -3284.1022 
   20600    -101851.9   -91901.645    241.62887    20724    226193.28   -104.56813    -59.92663   -37.164312   -216.61346    434.44412    23.500121      22.1552   0.81554241    435.25966   -3304.7486 
   20700   -101795.38   -91891.453    240.50398    20724    226306.41   -19.133982   -171.77118    19.869218    94.500012    434.43407    23.506269    22.160996   0.82056272    435.25464   -3316.7754 
   20800   -101783.69   -91929.142    239.30482    20724    226307.84    52.744521   -17.110879     1.670975    173.67347    434.29607    23.510078    22.164586   0.88956514    435.18563   -3284.2704 
   20900   -101755.09   -91879.138    239.82461    20724    226227.65    31.241828   -67.945677    157.17522    4.4959438    434.51307    23.500042    22.155125   0.78106334    435.29414    -3335.881 
   21000    -101715.7   -91856.646    239.41438    20724     226319.1    76.213292    85.205236    59.834806    83.599833     434.4702     23.50595    22.160695   0.80249757     435.2727   -3357.8721 
   21100    -101769.4   -91873.569    240.30726    20724    226229.74     3.577839   -87.925049   -177.03211    275.69067     434.2996    23.505925    22.160672   0.88779981     435.1874   -3342.4586 
   21200   -101643.81   -91797.495    239.10493    20724    226262.32    28.605555    189.93239   -149.33024    45.214518    434.39865    23.504938    22.159741   0.83827715    435.23692   -3418.0013 
   21300   -101673.28   -91797.479    239.82106    20724    226254.38    62.696354   -106.44049    245.38518    49.144365    434.45803    23.502919    22.157837   0.80858363    435.26662   -3421.2128 
   21400   -101778.57   -91848.533    241.13799    20724    226259.77   -128.25673   -268.79688    52.420416   -168.39374     434.6752    23.497327    22.152565   0.69999988     435.3752   -3362.6122 
   21500   -101844.18   -91843.927    242.84312    20724    226345.09   -56.403509   -61.333221    104.13132   -212.00863    434.73134    23.500239    22.155311   0.67192953    435.40327   -3370.0839 
   21600   -101775.75   -91801.979    242.20011    20724     226410.3   -73.488766    11.892609   -129.00038   -103.35853    434.70423    23.504357    22.159193   0.68548661    435.38971   -3410.7108 
   21700   -101775.32   -91832.266    241.45418    20724    226223.04    44.397136    80.858515    125.98738   -73.654486    434.42143    23.502281    22.157236   0.82688381    435.24832   -3391.4848 
   21800   -101681.43   -91780.541    240.43012    20724    226026.83   0.56453014   -293.76377      131.517    163.94036    434.30562    23.495218    22.150578   0.88478995    435.19041   -3448.5455 
   21900   -101784.59   -91781.217    242.91877    20724    226162.19   -95.625585    25.794826   -1.2199919   -311.45159    434.73902    23.490535    22.146162   0.66809095    435.40711   -3441.7482 
   22000    -101649.5   -91742.954    240.56755    20724    226228.41    8.6313748   -5.0514647   -91.592864    122.53845     434.3883    23.503456    22.158344   0.84345177    435.23175   -3485.1333 
   22100   -101697.87   -91785.246    240.71522    20724    226092.16    40.944979    150.45389   -149.45434    121.83538    434.23528    23.500517    22.155573   0.91996218    435.15524   -3447.7121 
   22200   -101724.96   -91704.965     243.3226    20724    226342.05   -29.961182   -116.61928   -127.47398    154.20971    434.31412    23.511366    22.165801   0.88053805    435.19466   -3519.9116 
   22300   -101692.91   -91758.839    241.23598    20724    225972.13   -107.07797   -124.20903   -31.992552   -165.03233    434.05867    23.499057    22.154196    1.0082637    435.06694   -3473.6682 
   22400   -101776.13    -91719.97    244.20068    20724     226194.4    76.407467    167.04846    200.32771   -138.15377    434.13219     23.50862    22.163213   0.97150582    435.10369   -3518.2576 
   22500   -101628.39   -91732.265    240.31442    20724    226101.74    38.760811   -177.55181    80.957678    212.87657     434.2326    23.501087    22.156111   0.92130159     435.1539   -3506.5167 
   22600   -101721.89     -91755.9    242.01102    20724    226042.85    17.740885   -150.56678    17.318169    186.47127    434.02198    23.503727      22.1586    1.0266093    435.04859   -3484.4231 
   22700   -101601.06    -91727.39    239.76929    20724    226033.67  -0.14926077    77.733885   -160.43092    82.249252    433.98408    23.504276    22.159117    1.0455605    435.02964   -3512.7961 
   22800   -101686.91   -91730.386    241.78118    20724    226005.81    39.845854     147.9569    -319.5244    291.10506    434.09909    23.499714    22.154816   0.98805311    435.08715   -3513.8912 
   22900   -101680.18   -91693.814    242.50582    20724    225990.11    6.5958398   -4.5987129    130.54861   -106.16238    433.74743    23.508422    22.163025    1.1638826    434.91132   -3551.2195 
   23000   -101647.94   -91697.431    241.63519    20724    226056.29  -0.76380377    95.431991    227.96228   -325.68568    434.09962    23.502324    22.157276   0.98779125    435.08741   -3546.3855 
   23100   -101635.34     -91685.6    241.61647    20724    226005.85    8.6009172    -119.0981    102.20695    42.693904    433.87026    23.505912     22.16066    1.1024707    434.97273   -3559.7849 
   23200   -101631.48   -91735.784    240.30411    20724    226148.96    6.6754853   -203.41234   -53.512642    276.95144    433.93598    23.511573    22.165996    1.0696086    435.00559   -3507.5482 
   23300   -101581.06   -91662.544    240.85832    20724    225970.35    68.725508    -64.38014    151.96416     118.5925    433.79798    23.506024    22.160765    1.1386119    434.93659   -3591.3762 
   23400   -101679.77   -91681.161    242.80315    20724    226154.36   -165.13411   -97.490273   -348.22616   -49.685892    434.11149      23.5071    22.161779   0.98185445    435.09335   -3558.9639 
   23500   -101688.02   -91626.225    244.33749    20724    226267.06   -102.04093    2.4112813   -156.63078    -151.9033    434.18218    23.511043    22.165496   0.94651189    435.12869   -3613.5875 
   23600   -101622.62   -91642.049    242.36508    20724    226072.07    63.797369   -7.8092421    116.70512    82.496232    434.31106    23.497423    22.152656   0.88206956    435.19313   -3613.3514 
   23700   -101511.47   -91595.047    240.80735    20724     225896.4    15.940882   -203.00753     32.90405    217.92612    434.05803    23.495136      22.1505    1.0085844    435.06662   -3664.7829 
   23800   -101503.15   -91611.164    240.21395    20724    226148.29    18.429205    102.48089   -234.55348     187.3602     434.1136    23.506727    22.161428    0.9807982     435.0944   -3641.5605 
   23900   -101685.64   -91623.099    244.35563    20724    226125.24   -28.857513   -93.893708   -17.570854    24.892022    434.16933    23.504021    22.158876   0.95293387    435.12227   -3630.8279 
   24000    -101549.9   -91616.836    241.21152    20724    226083.16   -14.103952   -9.9824181    -165.9115    133.58206    434.29435    23.498451    22.153625    0.8904263    435.18477    -3637.767 
   24100   -101560.21   -91625.004    241.26356    20724    226112.02   -24.709676     80.42946    -332.8626    178.30411    434.36732    23.497976    22.153178   0.85394002    435.22126   -3629.8916 
   24200   -101634.11   -91610.556    243.40887    20724    226215.15   -25.919247   -88.492803    272.45411   -261.71905    434.45332    23.501009    22.156036   0.81093881    435.26426   -3641.8526 
   24300   -101644.48   -91646.138     242.7967    20724    226110.48   -12.364217   -28.188158    79.307433   -88.211925    434.13265    23.504247    22.159089   0.97127745    435.10392   -3610.5114 
   24400   -101621.24   -91618.855    242.89479    20724    226113.44   -4.9117334   -48.392375   -31.934352    65.591527     434.2816    23.500369    22.155434   0.89679796     435.1784   -3641.1489 
   24500   -101629.13   -91640.254    242.56692    20724    226027.77   0.64412587   -81.803923   -53.243004     136.9793    434.18964    23.498405    22.153582   0.94277801    435.13242   -3623.7403 
   24600   -101538.81   -91606.156    241.20149    20724    226069.67    57.491365   -20.461581   -125.49494    318.43061    433.95939    23.506817    22.161512    1.0579041     435.0173   -3659.0904 
   24700   -101516.07   -91627.434    240.13265    20724    226075.57   -38.691202   -97.129929   -163.16751    144.22383    434.03699    23.505022     22.15982    1.0191034     435.0561    -3635.286 
   24800   -101600.29   -91669.994    241.14433    20724    225969.08    71.321212    138.79356     5.345197    69.824879    433.86999    23.504007    22.158864    1.1026032     434.9726   -3603.7671 
   24900   -101572.07   -91610.734    241.89813    20724    226017.26    38.514204     256.9988   -113.22184   -28.234353    433.77442    23.509103    22.163667     1.150391    434.92481   -3661.3685 
   25000   -101594.49    -91617.07    242.28859    20724    226004.12   -28.074826    -16.66477    62.499455   -130.05916    433.79844    23.507768    22.162409    1.1383809    434.93682   -3652.7849 
   25100   -101526.66    -91573.45    241.70074    20724    226095.12     59.85106  -0.17717747    238.07342   -58.343062    433.75548    23.513665    22.167968    1.1598608    434.91534   -3697.6921 
   25200   -101548.45   -91601.022    241.56027    20724    226061.42    24.150253    223.11919   -23.070647   -127.59779    433.72919    23.512625    22.166988    1.1730046     434.9022   -3670.3391 
   25300   -101559.73   -91562.894    242.76003    20724    226081.17   -70.717985    123.85738   -304.94018   -31.071151    434.07076    23.504399    22.159233    1.0022199    435.07298   -3703.4008 
   25400   -101613.95    -91575.13    243.77956    20724    226054.88   -23.810791   -96.926785   -166.51998     192.0144    433.93208    23.506787    22.161484    1.0715577    435.00364   -3697.1741 
   25500   -101591.73   -91552.131    243.79862    20724     226083.9   -97.119296   -53.379104   -132.18376   -105.79502    434.01573    23.506031    22.160771    1.0297326    435.04547    -3719.385 
   25600   -101582.18   -91577.039    242.96184    20724    226118.85    43.839646    96.818117   -2.3053888     37.00621    434.00498    23.508138    22.162758    1.0351096    435.04009   -3699.9567 
   25700   -101534.74     -91537.1    242.77979    20724    226278.38    89.410782    71.259257    174.42248    22.550608    434.11823    23.513362    22.167683   0.97848711    435.09671   -3738.3389 
   25800   -101526.18    -91491.23    243.68578    20724    226139.35   -132.27303   -149.80451   -201.34239   -45.672208    433.92041    23.511495    22.165923    1.0773958     434.9978   -3779.1671 
   25900    -101515.5   -91451.726    244.38574    20724    226400.87   -72.743775     123.5874   -119.20037   -222.61836    434.37951    23.512651    22.167012   0.84784292    435.22736   -3813.9682 
   26000   -101507.53   -91476.784    243.58349    20724    226109.36   -10.280262     30.05134    44.851838   -105.74396    434.04426    23.506581     22.16129    1.0154711    435.05973   -3802.2323 
   26100   -101475.27   -91447.557    243.50991    20724    226238.54    -47.66553    -166.2078   -20.818154    44.029364    434.16173    23.510114    22.164621   0.95673353    435.11847   -3826.9248 
   26200   -101454.77   -91477.394    242.28755    20724    226234.55   -53.888294   -30.702906   -237.92193    106.95995    434.14646     23.51032    22.164815   0.96437038    435.11083   -3797.7711 
   26300   -101430.91   -91465.971    241.98557    20724    226049.35    6.6195714   -309.66894    231.51935    98.008301    433.88465    23.507785    22.162425    1.0952759    434.97992   -3818.0622 
   26400   -101489.73   -91439.961    244.04544    20724    226077.77    -63.90433    80.571028    177.97989   -450.26391    433.79444    23.511707    22.166122    1.1403791    434.93482    -3842.316 
   26500    -101406.3    -91441.29     241.9873    20724    226059.29    118.40347    240.56189    53.962348    60.686167    434.22653    23.499045    22.154186   0.92433468    435.15087   -3853.3055 
   26600   -101515.29   -91443.422    244.58222    20724     226173.1    47.943475   -9.9479126    45.132605    108.64573    434.06764    23.509261    22.163817    1.0037811    435.07142   -3844.3925 
   26700    -101363.6    -91448.21    240.78243    20724    225987.51    83.822219    124.99854   -52.158127    178.62624    433.86742    23.505036    22.159833     1.103891    434.97131   -3845.2969 
   26800   -101509.15   -91414.596    245.13315    20724    226275.59    16.663123    -38.93814    90.449727   -1.5222179    434.04332    23.515246    22.169459    1.0159397    435.05926   -3870.8448 
   26900   -101408.37   -91393.792    243.19098    20724    226090.95    43.606827    42.705997    6.8342294    81.280255    433.89159     23.50976    22.164287    1.0918048     434.9834   -3898.7633 
   27000   -101455.75    -91366.25    245.01029    20724    226251.98    1.9740567   0.21908654   -155.44965    161.15273    434.20128    23.509742     22.16427   0.93696077    435.13824   -3919.4946 
   27100    -101413.4   -91368.881    243.91799    20724    226185.79   -73.060838     -46.9337   -93.902748   -78.346064    434.09365    23.509217    22.163775   0.99077568    435.08442   -3916.5914 
   27200   -101449.76   -91355.648    245.12231    20724     226129.9   -17.329885    3.2095792    143.11671   -198.31595    433.86762    23.512434    22.166808    1.1037878    434.97141   -3935.8591 
   27300    -101371.6    -91350.32     243.3536    20724    226204.63    -44.80381    -2.827829    -42.78367   -88.799931    434.13864    23.508977    22.163549   0.96827827    435.10692   -3938.7961 
   27400   -101422.31   -91355.017    244.47109    20724    226175.97   -89.604336   -23.744192   -111.56826   -133.50055     434.1357    23.507567     22.16222   0.96974856    435.10545   -3931.3618 
   27500   -101485.96   -91356.676    245.97654    20724    226193.14    37.094971    146.44136   -77.185758    42.029308    434.34173    23.502884    22.157804   0.86673329    435.20847   -3939.2477 
   27600   -101415.67   -91302.105    245.59473    20724    226254.12   -35.126288    -27.85719  -0.94775302   -76.573922    434.31306    23.506827    22.161522   0.88107086    435.19413   -3987.6656 
   27700   -101349.66   -91325.114    243.43304    20724    226002.96    2.5478936    88.537357    187.97595   -268.86963     434.2615    23.495171    22.150533    0.9068478    435.16835   -3974.4904 
   27800    -101299.7   -91285.361    243.18514    20724    226382.68    82.353332    55.059787     56.85567    135.14454    434.50057    23.508431    22.163034   0.78731473    435.28789   -4008.3211 
   27900   -101400.27   -91261.131    246.21572    20724    226074.04   -58.325665    14.876441   -31.016042   -158.83739    434.44806     23.49382    22.149259   0.81357164    435.26163   -4037.6096 
   28000   -101223.55    -91268.88    241.73628    20724    226268.73    22.343819    78.289366    34.690977   -45.948888    434.47454    23.503218    22.158119   0.80033247    435.27487    -4027.065 
   28100   -101285.09   -91302.349    242.41784    20724    226129.82   -45.466409   -45.100443    62.364577   -153.66336    434.35924     23.49912    22.154256   0.85797912    435.21722   -3997.6897 
   28200   -101360.09   -91283.735    244.69104    20724    226157.89    49.698824    31.553158    87.229258    30.314055    434.34853    23.500868    22.155904   0.86333391    435.21187   -4019.2668 
   28300    -101402.2   -91273.954    245.95128    20724    226358.54    48.594239     49.32842   -71.615566    168.06986    434.19799    23.515367    22.169573   0.93860395     435.1366   -4025.3412 
   28400   -101365.08   -91238.737      245.905    20724    226207.87    1.2758494    77.775286   -224.04985    150.10211    434.41598     23.50164    22.156632   0.82960751    435.24559   -4063.8283 
   28500   -101360.35   -91211.318    246.45596    20724    226191.86  -0.50031757   -13.273586   -30.011772    41.784405    434.35543    23.502447    22.157392   0.85988606    435.21531   -4090.8442 
   28600   -101344.94    -91225.88    245.72807    20724    226223.81    3.6924256   -68.811507   -40.212824    120.10161    434.43881    23.501851     22.15683   0.81819528      435.257   -4077.3622 
   28700   -101379.19   -91227.108    246.53001    20724    226310.29   -57.340852   -39.405465   -41.398707   -91.218385     434.6216    23.501399    22.156404   0.72679775     435.3484   -4071.7508 
   28800   -101262.87   -91218.682     243.9101    20724    226024.11    63.097908    120.29937    56.503203    12.491151    434.18169     23.49843    22.153606   0.94675695    435.12844   -4095.5196 
   28900   -101375.15   -91211.233     246.8175    20724    226118.15   -57.478843   -115.14621    249.62466   -306.91498    434.39988    23.497415    22.152648   0.83765923    435.23754    -4096.093 
   29000   -101280.18   -91211.481    244.50522    20724    226243.04    33.043109   -63.794655    110.01147    52.912515    434.32025    23.506057    22.160796   0.87747712    435.19772   -4095.5801 
   29100    -101289.7    -91192.16    245.20567    20724    226257.65   -77.651464   -107.63459   -226.36749    101.04768    434.11758    23.512303    22.166684   0.97881131    435.09639   -4110.5954 
   29200   -101278.19   -91206.606    244.57522    20724    226176.37    14.548278   -12.666528    163.07803   -106.76667    434.28292    23.503604    22.158483   0.89613908    435.17906   -4104.4706 
   29300   -101314.75   -91202.226    245.56952    20724    226161.54    4.6861964    139.46227   -175.99613    50.592453    434.04337    23.509318     22.16387    1.0159138    435.05929   -4109.6098 
   29400   -101237.82   -91154.342    244.86419    20724    226189.95    17.982211    30.603882   -76.811473    100.15422    433.79154    23.517618    22.171695    1.1418289    434.93337   -4158.3076 
   29500   -101223.94   -91182.039    243.85444    20724    226298.11    64.956706   -50.841417    176.28255    69.428987    434.16113    23.513226    22.167554    0.9570353    435.11816   -4130.4008 
   29600   -101214.36   -91152.066     244.3496    20724    225941.92    15.577304   -40.933557     82.46071    5.2047574     433.7122     23.50687    22.161563    1.1815017     434.8937   -4170.3519 
   29700   -101230.73    -91144.72    244.92565    20724    226104.46   -2.6652962     79.68547   -153.04723    65.365872    433.63869    23.517317    22.171411    1.2182552    434.85694   -4174.4791 
   29800   -101230.36   -91162.868    244.47589    20724    226067.76    50.024098    28.594383     20.25314    101.22477    433.70385    23.513641    22.167946    1.1856742    434.88953     -4160.37 
   29900   -101315.37    -91171.74    246.32485    20724    226036.54     11.07328    23.074198   -76.210005    86.355647    433.41982    23.519721    22.173677    1.3276916    434.74751   -4152.0555 
   30000   -101133.34   -91103.827    243.55368    20724    226121.28   -14.302528    22.891224    121.96297   -187.76178    433.51221    23.521622     22.17547    1.2814968     434.7937   -4217.6792 
   30100   -101254.62   -91123.337    246.02497    20724    226083.73    83.627367   -58.477436    45.119425    264.24011    433.48726    23.520345    22.174267    1.2939681    434.78123   -4206.1621 
   30200   -101318.38    -91069.28    248.88615    20724    226001.43   -158.29699    90.533088   -380.74453   -184.67952    433.43246    23.517551    22.171632     1.321372    434.75383   -4251.5976 
   30300   -101214.93    -91081.88    246.06796    20724    226010.64    48.362424   -29.038034    145.87815    28.247158    433.80008    23.508063    22.162687    1.1375576    434.93764   -4249.7321 
   30400   -101183.59   -91071.777    245.55232    20724    226196.72    31.241739    47.422514    155.60841    -109.3057    433.56333    23.524158    22.177861    1.2559329    434.81927   -4254.0441 
   30500   -101182.19   -91037.276    246.35601    20724    225846.31   -7.7768901   -79.697601   -128.42713    184.79406    433.63412    23.504011    22.158867    1.2205385    434.85466   -4298.6897 
   30600   -101191.65   -91088.292      245.347    20724    225938.96   -13.611689   -60.301923    4.3384302    15.128427    433.67971    23.507596    22.162247     1.197745    434.87746   -4245.5677 
   30700   -101190.56   -91111.095    244.76661    20724    225577.68   -64.433906    -77.97354    31.332985   -146.66116    433.45872    23.494781    22.150166    1.3082403    434.76696   -4235.2624 
   30800   -101191.24   -91084.574    245.42713    20724    226013.64   -18.808812    131.05545    78.790888   -266.27277    433.54106    23.515241    22.169454    1.2670711    434.80813   -4251.0504 
   30900   -101143.15   -91071.531    244.57618    20724    225515.29    27.298934    144.98744   -163.36154     100.2709    433.41608    23.492687    22.148191    1.3295615    434.74564   -4281.4719 
   31000   -101136.73   -91039.678    245.19364    20724    225859.48   -4.0333386   -262.29856    31.738901    218.45964    433.58894    23.505921    22.160668    1.2431296    434.83207   -4302.7801 
   31100   -101258.44   -91076.918    247.24489    20724    225738.09   -52.783692    26.050825   -195.52008     11.11818    433.31248    23.507099    22.161779    1.3813592    434.69384   -4271.0287 
   31200   -101221.92   -91024.074     247.6413    20724    225903.86    21.101015   -21.596055    131.04461   -46.145509     433.3932    23.513539     22.16785    1.3409993     434.7342   -4323.0333 
   31300   -101173.02   -91036.105    246.16176    20724    225833.91    77.360494    117.14071    310.22118   -195.28041    433.27306    23.513157     22.16749    1.4010699    434.67413   -4316.4326 
   31400   -101082.06   -91037.742    243.91322    20724    225809.11    50.876765   -68.645987    214.87353    6.4027513    433.15496    23.515071    22.169294     1.460119    434.61508   -4314.9622 
   31500   -101165.31   -90963.955     247.7267    20724    225951.76   -17.234961    44.399995   -77.938933   -18.165944    433.27249    23.519307    22.173288    1.4013573    434.67384   -4382.6057 
   31600   -101151.77   -91015.808    246.13868    20724    225544.45    5.3934644    146.54185    15.102238   -145.46369    433.19033    23.500327    22.155394    1.4424373    434.63276   -4345.4805 
   31700   -101227.88   -90999.393     248.3855    20724     225775.8   -117.94229   -249.17727   -70.903494   -33.746106     433.3127    23.509057    22.163624    1.3812481    434.69395   -4349.6781 
   31800   -101173.99   -91009.578    246.82939    20724    225597.24   -33.073931 -0.047197144   -76.880956    -22.29364    432.93807    23.509923    22.164441    1.5685649    434.50664   -4349.1391 
   31900   -101104.61   -91021.185    244.86288    20724    225745.69    44.923845    96.487608   -230.68782    268.97174    432.90612    23.518525     22.17255    1.5845394    434.49066   -4339.2745 
   32000   -101175.18   -91031.905    246.31629    20724    225656.99   -130.39918   -91.762316   -152.98418   -146.45103    432.89634     23.51417    22.168445    1.5894311    434.48577   -4322.4968 
   32100   -101170.99   -91019.989    246.50388    20724    225557.15   -23.114269    89.427243   -121.77146   -36.998589    433.12458    23.502773      22.1577    1.4753091    434.59989   -4344.7989 
   32200   -101162.44   -91001.486    246.74551    20724    225736.17   -8.5959958   -62.151592   -103.84744    140.21104    433.11922    23.512243    22.166628    1.4779891    434.59721   -4358.6988 
   32300   -101184.54   -91025.095    246.70898    20724    225506.15   -16.212961    70.709567   -82.199548   -37.148901    432.87314     23.50694    22.161628    1.6010316    434.47417   -4344.2003 
   32400   -101152.63   -91001.788    246.50004    20724    225954.54    49.122813  -0.16733738    198.97598   -51.440202    432.91426    23.529181    22.182597    1.5804725    434.49473   -4356.8892 
   32500   -101100.37   -90992.946     245.4456    20724    225542.48    2.6473811    76.825722    210.70096   -279.58454    433.00585     23.50523    22.160016    1.5346768    434.54052   -4377.8898 
   32600   -101228.14   -90971.773    249.06251    20724    225825.04    12.517456     26.08816    29.225681   -17.761472    432.99543    23.520232     22.17416     1.539883    434.53532    -4392.723 
   32700   -101152.36   -90956.216    247.60006    20724    225646.71   -17.259161   -181.98303    87.805948    42.399602    433.10264    23.508033    22.162659    1.4862801    434.58892    -4414.048 
   32800   -101151.12   -90978.211    247.03572    20724    225722.78   -35.474747    -16.35997   -158.09774    68.033474    432.98858    23.515092    22.169314      1.54331    434.53189   -4390.1744 
   32900   -101135.49   -90921.448    248.03473    20724    225688.63    29.706677   -20.779915    18.913638    90.986308    432.83791    23.517405    22.171495    1.6186442    434.45656   -4453.3326 
   33000   -101119.32   -90909.933    247.92163    20724    225833.53   -83.648781   -122.82671   -75.526158    -52.59347    433.20833    23.514894    22.169127    1.4334345    434.64177   -4456.0512 
   33100   -101153.07   -90886.955    249.29926    20724    225665.17    22.027259    -29.77403    4.7586238    91.097182    432.98876    23.512087     22.16648    1.5432219    434.53198   -4491.5151 
   33200   -101182.21   -90877.813    250.22876    20724    225568.88    3.5437965    79.687604   -51.545111   -17.511103    432.87168    23.510248    22.164748    1.6017611    434.47344   -4504.2696 
   33300   -101070.05   -90894.188    247.10767    20724    225723.99      4.79651    121.97045   -231.33638    123.75546    433.17439    23.510112    22.164619    1.4504072    434.62479   -4483.3547 
   33400   -101055.11    -90882.49    247.02881    20724    225728.34   -47.530956   -9.5394267      34.2878   -167.34124    433.20381     23.50954    22.164079    1.4356947    434.63951    -4492.899 
   33500   -101025.55   -90851.293    247.06863    20724    225713.59   -18.786699    1.2614621    194.61881   -252.24037    433.19795    23.508931    22.163505    1.4386246    434.63658   -4524.8759 
   33600   -101018.85   -90847.789    246.99092    20724    225831.18    50.062049    45.949757    -104.6249    208.86128    433.31024    23.512006    22.166405    1.3824804    434.69272   -4530.4694 
   33700   -100956.57   -90824.431    246.04576    20724    225754.94   -20.848387    135.36959   -331.25502    133.34027     433.2076    23.510822    22.165288    1.4338002     434.6414   -4553.9487 
   33800   -101062.74   -90826.754    248.56751    20724     225915.1     8.836676    47.300809   -148.82468     128.0339    433.41646    23.513493    22.167806    1.3293695    434.74583   -4548.7876 
   33900   -101063.38   -90829.943    248.50561    20724    225855.37   -36.173931    122.82445   -238.24041    6.8941651    433.50279    23.508043    22.162669    1.2862071    434.78899   -4546.5125 
   34000   -100953.29   -90785.683    246.90715    20724    225788.16   -14.867602    224.35117     192.0934   -461.04737    433.45474    23.505848    22.160599    1.3102323    434.76497   -4595.6204 
   34100   -100915.04   -90769.254    246.37731    20724    225619.87    31.769798    64.128085    108.14523   -76.963925     433.2993      23.5013    22.156311    1.3879505    434.68725   -4620.3037 
   34200   -101021.74   -90802.055    248.17172    20724    225687.68   -130.41472    -245.7418   -284.36617    138.86381    433.34244    23.503662    22.158538    1.3663821    434.70882   -4579.9721 
   34300   -100996.84   -90766.445    248.43188    20724    225822.19   -23.153624    43.520963   -376.05578    263.07395    433.64319    23.502511    22.157452    1.2160048     434.8592   -4617.5928 
   34400   -100970.64   -90757.823    248.00505    20724    226103.15    13.269879   -32.641106     90.38677   -17.936026    433.94277    23.509007    22.163578    1.0662148    435.00899   -4620.8924 
   34500   -100977.02   -90743.174    248.51563    20724    225980.93    18.550728    16.908056    142.71384   -103.96972     433.6973    23.509303    22.163856    1.1889489    434.88625   -4639.6602 
   34600   -100978.16   -90684.098    249.97782    20724       226171   -11.092713    17.603745     131.9451   -182.82699    433.91169    23.513376    22.167697    1.0817561    434.99344   -4693.1491 
   34700   -100897.87    -90692.08    247.83443    20724     226220.1   -63.043465   -81.962687    348.68296   -455.85067    434.11187    23.510506    22.164991   0.98166482    435.09354   -4681.7861 
   34800   -100816.49   -90694.606    245.79665    20724    226092.02  -0.88420993   -29.125064    55.861111   -29.388677    433.73065    23.514177    22.168451    1.1722752    434.90292   -4687.1556 
   34900   -100917.67   -90724.677    247.52359    20724    226107.27   -59.440817    9.7257804    20.865932   -208.91416    433.88145    23.510883    22.165346    1.0968765    434.97832   -4654.6502 
   35000   -100989.53   -90722.801    249.31421    20724    226126.67   -83.207087   -33.712027    120.24907    -336.1583    433.94772    23.510096    22.164604    1.0637403    435.01146   -4658.6566 
   35100    -100939.8   -90703.144    248.58387    20724    226194.87    -12.09633   -56.275277    145.96407   -125.97778    433.71904    23.519839    22.173789     1.178078    434.89712   -4681.0718 
   35200   -100939.97   -90697.491    248.72528    20724     225989.6   -51.376279   -133.00033    65.110204   -86.238712    433.81644    23.506526    22.161238    1.1293805    434.94582    -4690.481 
   35300    -100984.6   -90715.032    249.38302    20724    226117.55    48.695618   -18.795089    146.28716    18.594789    433.78975    23.513902    22.168192    1.1427228    434.93248   -4675.7464 
   35400   -100918.62   -90667.736    248.92926    20724    226050.17   -2.6349862   -204.43838    77.705401    118.82802    433.79759    23.510186    22.164689    1.1388056    434.93639   -4723.7951 
   35500   -101006.96   -90685.415    250.64531    20724    226088.98    164.55436    278.14364    111.01779    104.50165    433.97663    23.507354    22.162019    1.0492867    435.02591    -4715.059 
   35600   -100951.22   -90704.946    248.81746    20724    226181.26   -26.311016    31.689402   -217.07004    106.44759    433.88427    23.514653      22.1689    1.0954661    434.97973   -4685.5365 
   35700   -100962.03   -90697.067    249.27127    20724    226022.72   -90.069889   -171.79913    -23.34352   -75.067011    434.05231     23.50186    22.156839    1.0114431    435.06376   -4695.2897 
   35800   -100919.28    -90700.54    248.14868    20724    226230.65   -23.487528   -24.929068    37.243911   -82.777425    433.84569    23.518266    22.172306    1.1147539    434.96045   -4689.4301 
   35900    -100908.1   -90692.729    248.06695    20724    225913.13   -1.2401627   -20.711153    -226.9944    243.98507    433.73412    23.504778     22.15959    1.1705394    434.90466   -4707.5097 
   36000   -100820.83    -90672.61    246.43639    20724    226005.31     49.31802   -135.53003    18.594204    264.88988    433.95629    23.503555    22.158437    1.0594573    435.01574   -4730.0926 
[...]
  491300   -93445.399   -80681.901    309.94491    20724    221202.67   -78.107365    80.976583    -195.6547   -119.64398    423.23055    23.545282    22.197776    6.4223234    429.65288   -22315.297 
  491400   -93393.924   -80683.285    308.66129    20724       221455    76.987928    161.59614   -13.761873    83.129521    423.65262    23.546969    22.199367    6.2112924    429.86391   -22311.723 
  491500   -93393.577   -80647.657    309.51804    20724    222007.95    14.461601    27.377877   -37.455024    53.461951    423.72651    23.574292    22.225126    6.1743459    429.90085   -22325.098 
  491600   -93489.666   -80666.933    311.38337    20724    221781.38   -171.46967   -348.16234   -169.99502    3.7483456    423.33689      23.5731    22.224002    6.3691536    429.70605   -22310.339 
  491700   -93478.866     -80632.1    311.96699    20724    221690.45    35.826443   -6.1624161     3.052922    110.58882    423.21462    23.571671    22.222655    6.4302913    429.64491   -22358.288 
  491800   -93409.758   -80651.829    309.80969    20724    221754.88   -64.114978   -76.330052    30.736246   -146.75113     423.3501    23.571324    22.222328    6.3625503    429.71265   -22333.044 
  491900   -93484.783   -80649.387    311.69087    20724    221580.19    41.878879   -162.67303    107.19761    181.11206    423.42133    23.560056    22.211704    6.3269336    429.74827   -22349.782 
  492000    -93445.38   -80630.532    311.19191    20724    221528.15   -12.360929   -250.86706   -171.82083     385.6051    423.27914    23.561245    22.212826    6.3980286    429.67717   -22372.587 
  492100   -93509.378    -80646.53    312.35752    20724     221528.9   -59.025158   -217.94582   -68.762107    109.63245    423.24319    23.562286    22.213807     6.416005    429.65919   -22355.934 
  492200   -93425.742   -80699.546    309.03911    20724    221395.41    97.317735    275.48908   -1.7014153    18.165537    422.59204    23.573326    22.224215    6.7415794    429.33362   -22318.031 
  492300   -93608.432   -80670.335    314.18483    20724    221850.38    16.761129    52.720888    54.393124   -56.830626    422.97698    23.586795    22.236913     6.549109    429.52609   -22331.631 
  492400   -93525.115   -80666.596    312.25239    20724    222056.28   -31.215986   -154.77497   -45.524245    106.65126    423.14539    23.593042    22.242803    6.4649036     429.6103   -22323.359 
  492500   -93509.861   -80677.456    311.61824    20724    221388.65   -46.098381    148.16274   -51.927104   -234.53078      422.409    23.578073    22.228691    6.8331016     429.2421   -22340.616 
  492600   -93557.255   -80646.763    313.51447    20724    221904.56    16.480779   -222.47487    239.71696    32.200252    422.36355      23.6068    22.255773    6.8558275    429.21937   -22357.771 
  492700   -93491.439   -80663.164    311.51794    20724    221340.22   -14.815882    68.770194    131.38338   -244.60122    422.28457    23.578967    22.229534    6.8953162    429.17988   -22362.735 
  492800   -93489.782   -80678.164    311.11347    20724     221418.6    26.748429    -278.1689    56.053871    302.36032    422.06944    23.589151    22.239134    7.0028811    429.07232   -22350.416 
  492900   -93414.128   -80627.915     310.4965    20724    221458.72    87.178512    303.36283   -206.42457    164.59727    422.10464    23.590304    22.240222    6.9852809    429.08992   -22403.106 
  493000   -93574.318   -80707.284    312.45916    20724    221294.95    -136.6221   -112.61232   -117.15344   -180.10054     421.8993    23.587318    22.237406     7.087949    428.98725   -22321.997 
  493100   -93591.016   -80681.999    313.47868    20724    221462.32   -28.513631    180.69308   -64.869732   -201.36424    422.48946     23.57975    22.230271    6.7928696    429.28233   -22349.491 
  493200   -93497.965   -80688.212    311.06817    20724    220997.53   -22.400962   -87.882108    5.0866573    15.592566     422.4627     23.55574    22.207635    6.8062519    429.26895   -22362.178 
  493300   -93503.623   -80679.833    311.40902    20724    220991.94  -0.24729586   -18.760945    69.805538   -51.786481    422.27693    23.560622    22.212238    6.8991337    429.17607   -22374.062 
  493400   -93343.584   -80618.071    309.02251    20724    221437.83   -34.987241    -34.69175    -33.52585   -36.744124    422.06329    23.590347    22.240262     7.005955    429.06924   -22418.733 
  493500   -93463.366   -80647.807    311.20915    20724    221296.87    -59.70815   -181.06174    24.927595   -22.990303    421.87565    23.588082    22.238126    7.0997748    428.97543   -22395.656 
  493600   -93383.359   -80637.616    309.51377    20724     221063.4   -8.4228289   -272.58967     114.2188    133.10238    421.67601    23.581216    22.231654    7.1995965     428.8756   -22418.722 
  493700    -93547.02    -80651.33    313.15504    20724    221326.04   -34.187939   -56.434691    95.955361   -142.08449    421.60291    23.597265    22.246784    7.2361473    428.83905   -22397.529 
  493800   -93427.397   -80642.993    310.45261    20724    220881.85    52.637268   -136.23237    213.33321    80.810966    421.71544    23.570428    22.221483    7.1798802    428.89532    -22425.64 
  493900   -93576.339   -80647.823    313.95216    20724    221616.46    47.140202     166.0944     1.365318   -26.039114    422.47248    23.588428    22.238453    6.8013609    429.27384    -22399.02 
  494000   -93578.559   -80643.617    314.10823    20724    221237.46   -228.68773   -343.15915   -175.98723   -166.91682    422.31418    23.572667    22.223594    6.8805092    429.19469   -22406.992 
  494100   -93584.693    -80682.57    313.31126    20724    220820.14    29.859032    77.450529   -21.127613    33.254181    421.81728    23.564291    22.215697    7.1289575    428.94624   -22398.296 
  494200   -93625.206    -80693.42    314.03157    20724    221127.08   -138.13896    42.531507   -167.74784   -289.20055    422.40426    23.564273     22.21568    6.8354723    429.23973   -22369.797 
  494300   -93609.588   -80696.432    313.57917    20724    220982.57   -123.31255   -362.20704    149.34087   -157.07148    421.93208    23.569749    22.220843    7.0715619    429.00364   -22376.088 
  494400   -93519.696   -80708.411    311.10536    20724    221028.71    1.3664929   -68.993049    23.231109    49.861419    421.63091    23.580627    22.231098     7.222147    428.85305   -22369.668 
  494500   -93482.175    -80700.67     310.3822    20724    221218.92   -50.112046   -75.836012    46.447785   -120.94791    421.67251    23.589607    22.239564    7.2013427    428.87386   -22369.593 
  494600   -93500.197   -80700.925    310.81364    20724    221024.06     -29.6728    84.267223    299.70523   -472.99086    421.54416    23.582805    22.233151    7.2655193    428.80968   -22375.934 
  494700   -93485.839   -80728.031    309.80673    20724     220891.5    43.244793    167.07263   -166.98283    129.64458    421.58061    23.574712    22.225522    7.2472942    428.82791   -22360.486 
  494800   -93481.137   -80691.506    310.57951    20724    221028.09    -105.0224   -54.709099   -243.50676   -16.851343    421.65933    23.579798    22.230317    7.2079341    428.86727   -22386.027 
  494900   -93575.737   -80713.181    312.35042    20724    221044.88    4.3367318    9.1012853   -138.84374    142.75265    421.77725    23.577398    22.228054    7.1489772    428.92622    -22371.67 
  495000   -93597.926   -80702.692    313.14398    20724     220640.6   -91.984173   -342.12021    289.26608   -223.09839    421.53199    23.562679    22.214177    7.2716034     428.8036   -22393.536 
  495100   -93557.431    -80710.87    311.96201    20724    221033.74    48.586188   -72.517805    161.21956    57.056811    422.10604    23.567619    22.218835    6.9845778    429.09062   -22380.183 
  495200   -93495.407   -80728.018     310.0394    20724    220482.31    129.82988    197.36855    244.39576   -52.274669    421.95808     23.54233    22.194993    7.0585599    429.01664   -22389.257 
  495300   -93647.641   -80731.682    313.64723    20724    220640.31   -94.466617   -97.333957   -61.636668   -124.42922    421.81536    23.554747      22.2067    7.1299192    428.94528   -22373.006 
  495400   -93505.484   -80713.927    310.62628    20724    220324.53    33.822366    72.010323    209.09755   -179.64077    421.32336    23.551625    22.203756    7.3759194    428.69928   -22410.773 
  495500   -93459.563   -80667.606    310.63601    20724    220811.75    23.474207   -110.18635   -40.628127     221.2371    421.04564    23.585426    22.235622    7.5147783    428.56042   -22440.722 
  495600   -93518.342   -80681.275    311.73144    20724    220760.52    75.077315    33.362248   -116.84463    308.71432    420.65219    23.593716    22.243438    7.7115037     428.3637   -22433.373 
  495700   -93509.533    -80657.52    312.09439    20724    220778.29     33.82728   -18.241435    114.14933    5.5739445     420.7438    23.592097    22.241912    7.6656993     428.4095   -22456.146 
  495800    -93571.22   -80672.888     313.2192    20724    220912.52    22.524408    163.29263    356.52796   -452.24737    420.63304    23.602374    22.251601    7.7210787    428.35412   -22438.334 
  495900   -93480.365   -80646.311    311.65828    20724     220798.6   -12.081808    125.58445   -165.57045    3.7405795    420.54869    23.598654    22.248094    7.7632544    428.31195   -22466.353 
  496000   -93559.244   -80667.477    313.05976    20724    220560.52   -98.048767   -237.55645   -74.825826    18.235978    420.51956    23.586744    22.236865    7.7778193    428.29738   -22453.055 
  496100   -93401.842   -80655.235    309.53475    20724    220436.41    105.49114    107.85761    121.82651    86.789308    420.49034    23.580927    22.231381    7.7924294    428.28277   -22477.939 
  496200    -93431.43   -80671.599    309.85586    20724    220638.36    12.352371     98.68246    100.36738   -161.99273    420.56164    23.589726    22.239676    7.7567804    428.31842   -22451.639 
  496300   -93481.204   -80693.281    310.53804    20724    220461.38   -97.132714    125.57219   -277.24466   -139.72567    420.84512     23.57232    22.223267    7.6150391    428.46016   -22434.856 
  496400   -93544.435   -80715.214    311.54093    20724    220545.29   -127.19604   -5.1350702   -386.95878    10.505736    421.23534    23.565883    22.217198    7.4199295    428.65527   -22411.164 
  496500   -93465.527   -80721.648    309.46851    20724    220539.43   -39.289908   -153.96049    125.55613   -89.465364     421.1911    23.566807    22.218069    7.4420501    428.63315   -22408.645 
  496600   -93495.801   -80652.498    311.88288    20724    220784.66   -4.3169593    13.814457   -45.558921    18.793587    421.44895    23.572692    22.223617     7.313125    428.76207   -22473.508 
  496700   -93501.964   -80661.609    311.81129    20724    220928.65   -120.35113   -254.38772   -166.31387    59.648188    421.38685    23.582115    22.232501     7.344177    428.73102   -22453.958 
  496800   -93480.304    -80640.86    311.78917    20724     220869.3    117.21931    90.249655    187.07824    74.330018    421.11968    23.586426    22.236565     7.477761    428.59744   -22489.413 
  496900   -93573.414   -80614.861    314.68159    20724    220893.55    150.70809    55.916868    196.69619    199.51122     421.5559    23.575513    22.226277    7.2596517    428.81555   -22521.033 
  497000   -93519.661   -80682.879    311.72454    20724    220706.71   -22.080963   -77.316344    41.333608   -30.260153    421.13573    23.577293    22.227955    7.4697334    428.60547   -22452.042 
  497100   -93556.807   -80675.024    312.81731    20724    220665.76    16.881716   -71.013522   -123.48101    245.13968    420.93858    23.580626    22.231097      7.56831    428.50689   -22464.611 
  497200   -93370.049   -80613.309     309.7808    20724    221028.33   -106.25729    23.870005   -380.98654    38.344657    421.44352    23.585848    22.236021    7.3158419    428.75936   -22507.086 
  497300   -93438.681   -80649.974    310.55708    20724    220855.78    164.60909   -11.951615    132.17256    373.60633    420.71735    23.596978    22.246514    7.6789226    428.39628   -22490.397 
  497400    -93353.84   -80612.941    309.39614    20724    221123.45    33.332395    87.751008    50.544193   -38.298017    421.15775    23.598925    22.248349    7.4587236    428.61648   -22512.603 
  497500    -93345.67   -80647.892      308.349    20724    220741.13   -13.986162    22.017972    80.595257   -144.57172    420.62299    23.593499    22.243233    7.7261067    428.34909   -22492.987 
  497600   -93389.738   -80595.497    310.69147    20724    220775.29    87.030875    141.32806    61.689453    58.075112    420.79578    23.590479    22.240387    7.6397114    428.43549   -22549.243 
  497700   -93588.382   -80665.151    313.82382    20724    220788.82   -52.063226   -180.00396    -19.42258    43.236857    421.17771    23.580503    22.230982    7.4487472    428.62645   -22475.572 
  497800   -93492.067   -80647.175    311.92147    20724    220843.03   -89.129115   -90.167421    16.128368   -193.34829    420.92015    23.590612    22.240512    7.5775257    428.49767   -22491.568 
  497900   -93274.114   -80674.229    305.97179    20724    220743.25    68.975001    232.63765      292.332   -318.04464    420.90741    23.585639    22.235824     7.583896     428.4913   -22476.342 
  498000   -93320.312   -80678.777    306.98321    20724    220665.22     42.59342    123.46878   -2.1621539    6.4736361    421.04065    23.577739    22.228375    7.5172771    428.55792   -22474.756 
  498100   -93411.006   -80760.444    307.20241    20724    220666.27    109.18576    118.04192    10.468251    199.04712    420.88946    23.582029     22.23242    7.5928688    428.48233   -22399.043 
  498200   -93453.146   -80702.423    309.63471    20724    220897.02   -54.222477    -74.36864   -10.447644   -77.851146    421.18845    23.585979    22.236144    7.4433725    428.63183   -22443.483 
  498300   -93522.608   -80712.328    311.08097    20724    220806.35   -112.51588    37.274087   -84.957825   -289.86389    421.23207    23.579917    22.230429     7.421563    428.65364   -22434.285 
  498400   -93513.583   -80690.311    311.39646    20724    220940.32    -30.30357   -140.04894     78.44796    -29.30973    421.17397    23.588696    22.238706    7.4506163    428.62458   -22457.649 
  498500   -93375.194    -80672.01    308.48027    20724    220911.89   -97.938245    134.37888   -155.65598   -272.53763    421.28377    23.584105    22.234377    7.3957132    428.67949    -22475.53 
  498600   -93405.074    -80700.99    308.50214    20724    220940.68   -21.553873   -13.914515    120.90674   -171.65384    421.18954     23.58828    22.238313    7.4428305    428.63237   -22452.052 
  498700   -93493.578   -80712.192    310.37932    20724    220723.61    16.312534     39.00012    31.598849   -21.661367    421.23838    23.575322    22.226097    7.4184093    428.65679   -22451.736 
  498800   -93466.349   -80700.472    310.00269    20724    221038.81    60.945466    150.08781   -55.157352    87.905943    421.39778    23.587687    22.237755    7.3387086    428.73649   -22456.256 
  498900   -93464.231   -80658.511    310.97024    20724    221128.65    4.1192555    12.222615   -9.5733441    9.7084958    421.51347    23.589243    22.239221    7.2808662    428.79433   -22493.177 
  499000   -93450.773   -80685.148    309.99659    20724    220972.67    42.970705    86.989357    34.413769    7.5089896    421.20657     23.58951    22.239473    7.4343131    428.64089   -22477.177 
  499100   -93481.744   -80730.367    309.65057    20724    221034.81    71.648452    294.99481   -73.775174    -6.274281    421.55872    23.582971    22.233308    7.2582382    428.81696   -22433.812 
  499200   -93468.314   -80717.666    309.63287    20724    221308.29   -35.833986   -60.026544   -265.64529    218.16987    422.04777    23.583879    22.234165    7.0137144    429.06149   -22431.355 
  499300   -93542.865   -80703.519    311.78681    20724    221548.38   -24.764096    128.32602   -296.33885    93.720543    422.12829    23.594418      22.2441    6.9734527    429.10175   -22438.889 
  499400   -93513.893   -80724.761    310.56741    20724    221482.19   -139.88288   -130.71314   0.57519193    -289.5107    422.23067    23.588033    22.238081    6.9222646    429.15294   -22418.293 
  499500   -93566.879   -80747.211    311.30893    20724    221260.06   0.99984332    59.304311   -41.414795   -14.889986    422.18638    23.577439    22.228092    6.9444118    429.13079   -22412.368 
  499600   -93600.489   -80701.025    313.24669    20724    221269.71   -22.402712    119.85038   -243.86721    56.808691    422.28222    23.575276    22.226054    6.8964887    429.17871   -22457.765 
  499700   -93500.646   -80700.045    310.84591    20724    221956.29   -9.7068635    69.880417    -141.1012    42.100194    422.76699    23.598283    22.247744    6.6541074    429.42109    -22433.21 
  499800   -93541.946   -80703.636    311.76165    20724    221736.02    21.049968     91.17993   -110.27106    82.241036     423.0486    23.578719    22.229299    6.5133011     429.5619   -22442.454 
  499900    -93483.78   -80699.905    310.43974    20724    221609.81   -158.20313   -220.50167   -76.786719   -177.32098    423.13035    23.569731    22.220826    6.4724263    429.60277   -22445.106 
  500000   -93483.854   -80766.939     308.8137    20724    221462.56    60.061013    284.26912    -102.2494   -1.8366861    423.28556    23.557578    22.209369    6.3948195    429.68038   -22395.889 
Loop time of 50282.5 on 32 procs for 500000 steps with 20724 atoms

Performance: 1.718 ns/day, 13.967 hours/ns, 9.944 timesteps/s
97.3% CPU use with 32 MPI tasks x no OpenMP threads

MPI task timing breakdown:
Section |  min time  |  avg time  |  max time  |%varavg| %total
---------------------------------------------------------------
Pair    | 6249.9     | 8770.8     | 12259      |2356.6 | 17.44
Bond    | 0.37358    | 0.45426    | 0.57155    |   7.4 |  0.00
Kspace  | 7956.7     | 11459      | 13995      |2074.1 | 22.79
Neigh   | 8099.5     | 10085      | 11793      |1389.8 | 20.06
Comm    | 392.29     | 3634.1     | 7296.4     |4263.0 |  7.23
Output  | 14.192     | 53.36      | 80.456     | 332.1 |  0.11
Modify  | 12898      | 16242      | 21175      |2355.0 | 32.30
Other   |            | 37.79      |            |       |  0.08

Nlocal:    647.625 ave 699 max 587 min
Histogram: 2 0 3 2 12 1 2 4 2 4
Nghost:    7257.81 ave 7828 max 6821 min
Histogram: 8 5 4 1 1 0 2 2 4 5
Neighs:    237754 ave 272151 max 208519 min
Histogram: 2 3 11 3 1 0 3 2 3 4
FullNghs:  475508 ave 544620 max 414906 min
Histogram: 2 3 8 6 1 0 3 2 4 3

Total # of neighbors = 15216254
Ave neighs/atom = 734.233
Ave special neighs/atom = 2
Neighbor list builds = 500000
Dangerous builds not checked
write_data production.R1
PPPM initialization ...
  extracting TIP4P info from pair style
WARNING: Using 12-bit tables for long-range coulomb (../kspace.cpp:316)
  G vector (1/distance) = 0.345875
  grid = 400 48 48
  stencil order = 5
  estimated absolute RMS force accuracy = 0.000402472
  estimated relative force accuracy = 1.21203e-06
  using double precision FFTs
  3d grid and FFT values/proc = 67260 38400
write_restart restartproduction.R1
PPPM initialization ...
  extracting TIP4P info from pair style
WARNING: Using 12-bit tables for long-range coulomb (../kspace.cpp:316)
  G vector (1/distance) = 0.345875
  grid = 400 48 48
  stencil order = 5
  estimated absolute RMS force accuracy = 0.000402472
  estimated relative force accuracy = 1.21203e-06
  using double precision FFTs
  3d grid and FFT values/proc = 67260 38400
Total wall time: 13:58:03
