LAMMPS (30 Jul 2016)
# Sets up LAMMPS simulation for transient melting of ice: TIP4P/Ice
# Ensure cold thermostats do not move
# Thinbox: 16x1x1
# Defects
# Order param l=2

#### setting MD parameters ####
units real
boundary p p p
atom_style full

# read ice box in restart file
#read_data ice-ih-restart.data
read_restart restart.state
  orthogonal box = (0.447596 0.0241529 0.0227706) to (435.628 23.507 22.1617)
  32 by 1 by 1 MPI processor grid
  20736 atoms
  13824 bonds
  6912 angles
  2 = max # of 1-2 neighbors
  1 = max # of 1-3 neighbors
  1 = max # of 1-4 neighbors
  2 = max # of special neighbors

#replicate 16 boxes, 16x1x1


#### force field definition ####
pair_style      lj/cut/tip4p/long 2 1 1 1 0.1577 10.0
pair_modify	tail yes

kspace_style	pppm/tip4p 1.0e-6

bond_style	harmonic
angle_style	harmonic
dihedral_style	none
improper_style	none

bond_coeff	1 450.0 0.9572
angle_coeff	1 55.0 104.52


# reset pair coeff
pair_coeff	* * 0.0 0.0

#OO
pair_coeff	2 2 0.21085 3.1668
#OH
pair_coeff	* 1 0.0000 0.0000

neighbor        2.0 bin
neigh_modify    every 1 delay 1 check no

timestep	2.0
fix		constraints all shake 0.000001 20 0 b 1 a 1
  0 = # of size 2 clusters
  0 = # of size 3 clusters
  0 = # of size 4 clusters
  6912 = # of frozen angles

group water type 1 2
20736 atoms in group water

#*********** SIMULATION PARAMETER TO ADJUST ****************
#Box dimensions
variable lx equal lx
variable ly equal ly
variable lz equal lz

### Temperature of the hot and cold regions ####
variable thi equal 375
variable tlo equal 215
variable runpressure equal 0.986923
# Configuration equilibrated in density and temperature

# Define dx here

variable lx equal lx
variable ly equal ly
variable lz equal lz

variable xlo equal xlo
variable xhi equal xhi


variable dx equal 2.0

### ADD IN DEFECTS AT THE CENTRE OF THE HOT THERMOSTAT ###
variable x1 equal ${lx}/4.0
variable x1 equal 435.180008853052/4.0
variable y1 equal ${ly}/2.0
variable y1 equal 23.4828942905319/2.0
variable z1 equal ${lz}/2.0
variable z1 equal 22.1389588456307/2.0

region kill1 sphere ${x1} ${y1} ${z1} 3
region kill1 sphere 108.795002213263 ${y1} ${z1} 3
region kill1 sphere 108.795002213263 11.7414471452659 ${z1} 3
region kill1 sphere 108.795002213263 11.7414471452659 11.0694794228154 3
delete_atoms region kill1 compress no bond yes mol yes
Deleted 12 atoms, new total = 20724
Deleted 8 bonds, new total = 13816
Deleted 4 angles, new total = 6908




variable thip equal ${thi}*2.0/3.0
variable thip equal 375*2.0/3.0
variable tlop equal ${tlo}*2.0/3.0
variable tlop equal 215*2.0/3.0
variable cbl equal ${lx}*3.0/4.0-${dx}
variable cbl equal 435.180008853052*3.0/4.0-${dx}
variable cbl equal 435.180008853052*3.0/4.0-2
variable cbh equal ${lx}*3.0/4.0+${dx}
variable cbh equal 435.180008853052*3.0/4.0+${dx}
variable cbh equal 435.180008853052*3.0/4.0+2
variable hbl equal ${lx}*1.0/4.0-${dx}
variable hbl equal 435.180008853052*1.0/4.0-${dx}
variable hbl equal 435.180008853052*1.0/4.0-2
variable hbh equal ${lx}*1.0/4.0+${dx}
variable hbh equal 435.180008853052*1.0/4.0+${dx}
variable hbh equal 435.180008853052*1.0/4.0+2


#***************************************************
## EQUILIBRATION PERIOD - to reach the steady state ###
#run 0

#reset the timestep to start your production run
reset_timestep 0

# define a group to perform averages
#group s1 type 1
###*** SYSTEM THERMOSTATTING: HOT and COLD regions ***###

fix NVE all nve
fix PRESS all press/berendsen aniso ${runpressure} ${runpressure} 500000 couple yz
fix PRESS all press/berendsen aniso 0.986923 ${runpressure} 500000 couple yz
fix PRESS all press/berendsen aniso 0.986923 0.986923 500000 couple yz


### Apply THERMOSTATS ###

#set up the "hot region" in the middle of the box
region hot block ${hbl} ${hbh} 0 ${ly} 0 ${lz} units box
region hot block 106.795002213263 ${hbh} 0 ${ly} 0 ${lz} units box
region hot block 106.795002213263 110.795002213263 0 ${ly} 0 ${lz} units box
region hot block 106.795002213263 110.795002213263 0 23.4828942905319 0 ${lz} units box
region hot block 106.795002213263 110.795002213263 0 23.4828942905319 0 22.1389588456307 units box


#set up the "cold region" at the left end of the box
region cold block ${cbl} ${cbh} 0 ${ly} 0 ${lz} units box
region cold block 324.385006639789 ${cbh} 0 ${ly} 0 ${lz} units box
region cold block 324.385006639789 328.385006639789 0 ${ly} 0 ${lz} units box
region cold block 324.385006639789 328.385006639789 0 23.4828942905319 0 ${lz} units box
region cold block 324.385006639789 328.385006639789 0 23.4828942905319 0 22.1389588456307 units box

#set up the "cold region" at the right end of the box
#region cold2 block ${h2bl} ${xhi} 0 ${ly} 0 ${lz} units box


#Cold regions  unification
#region cold union 2 cold1 cold2 units box

#Create group of cold molecules
####group cool_ice region cold
####group cool_ice include molecule

####compute cold_temp cool_ice temp
####fix cold_rescale water temp/rescale 1 ${tlo} ${tlo} 0.0001 1.0
####fix_modify cold_rescale temp cold_temp

#this calculates the temperature using only the atoms in the "hot region"
#compute hot_temp all temp/region hot

# calculate the temperature using only WATER in the "hot region"
compute hot_temp water temp/region hot

#this calculates the temperature using only WATER in the "cold region"
compute cold_temp water temp/region cold


#set up a basic velocity rescale for the hot region WATER with thip
fix hot_rescale water temp/rescale 1 ${thip} ${thip} 1.0 1.0
fix hot_rescale water temp/rescale 1 250 ${thip} 1.0 1.0
fix hot_rescale water temp/rescale 1 250 250 1.0 1.0
#change the thermostat to only act on the "hot region"
#this is done by passing it the "hot temp" compute that we defined above
fix_modify hot_rescale temp hot_temp

#set up a basic velocity rescale for the cold region
fix cold_rescale water temp/rescale 1 ${tlop} ${tlop} 1.0 1.0
fix cold_rescale water temp/rescale 1 143.333333333333 ${tlop} 1.0 1.0
fix cold_rescale water temp/rescale 1 143.333333333333 143.333333333333 1.0 1.0
#change the thermostat to only act on the "cold region"
#this is done by passing it the "cold temp" compute that we defined above
fix_modify cold_rescale temp cold_temp

### Ensure MOMENTUM CONSERVATION ###

#ensure that linear momentum is conserved despite the "thermostatting" by velocity rescaling
fix cons_mom all momentum 1 linear 1 1 1


thermo 100
thermo_style custom step pe etotal temp atoms vol press pxx pyy pzz lx ly lz xlo xhi f_cold_rescale f_hot_rescale

group ox type 2
6908 atoms in group ox
group hy type 1
13816 atoms in group hy
compute KE all ke/atom
variable TEMP atom c_KE*4186.8/(1.3806488*6.02214129)

compute cc1 all chunk/atom bin/1d x center 2 units box
#fix TPROFILE all ave/chunk 1 500 500 cc1 v_TEMP density/number file temp.dat
fix TPROFILEox ox ave/chunk 1 500 500 cc1 v_TEMP density/number file temp-ox.dat
fix TPROFILEhy hy ave/chunk 1 500 500 cc1 v_TEMP density/number file temp-hy.dat

compute orderparam ox orientorder/atom degrees 1 2 nnn 4 cutoff 3.5
compute cc2 ox chunk/atom bin/1d x center 2 units box
#fix ORDERPARAM all ave/chunk 1 500 500 cc2 c_orderparam[1] file order-param.dat
fix ORDERPARAM all ave/chunk 1 500 500 cc2 c_orderparam[1] file order-param.dat

restart 50000 config.restart

run 500000
PPPM initialization ...
  extracting TIP4P info from pair style
WARNING: Using 12-bit tables for long-range coulomb (../kspace.cpp:316)
  G vector (1/distance) = 0.345605
  grid = 405 48 48
  stencil order = 5
  estimated absolute RMS force accuracy = 0.000405886
  estimated relative force accuracy = 1.22231e-06
  using double precision FFTs
  3d grid and FFT values/proc = 67260 38880
Neighbor list info ...
  2 neighbor list requests
  update every 1 steps, delay 1 steps, check no
  max neighbors/atom: 2000, page size: 100000
  master list distance cutoff = 12.3154
  ghost atom cutoff = 12.3154
  binsize = 6.1577 -> bins = 71 4 4
Memory usage per processor = 12.7834 Mbytes
Step PotEng TotEng Temp Atoms Volume Press Pxx Pyy Pzz Lx Ly Lz Xlo Xhi cold_res hot_resc 
       0   -103695.87   -94913.537    213.26762    20724    226244.36    148.84592    256.62395     98.02582    91.887993    435.18001    23.482894    22.138959   0.44759557     435.6276            0            0 
     100   -103533.31   -94615.404    216.55969    20724    226318.66    -5.412155   -56.761447    6.3613209    34.163661    435.17994    23.486752    22.142596   0.44763034    435.62757   -30.409559   -269.09427 
     200   -103669.53   -94595.177    220.35886    20724    226461.79   -18.702191    -88.26226    11.998243    20.157443    435.26315    23.491932    22.147479    0.4060269    435.66917   -14.823847     -302.085 
     300   -103469.92   -94535.474    216.96148    20724    226286.56    68.099591    167.16609    101.23696   -64.104277    434.87876    23.493217    22.148691   0.59821804    435.47698   -21.517647   -364.31704 
     400   -103542.61   -94508.309    219.38629    20724    226595.64   -3.8044895    50.178681   -123.04011    61.447958    435.38508    23.495582    22.150921   0.34506037    435.73014    -12.15194   -390.34531 
     500   -103510.22   -94471.174    219.50151    20724    226250.51  -0.52352517    11.258209   -114.41139    101.58261    435.00151    23.488031    22.143802   0.53684404    435.53836   -20.241499   -429.57815 
     600   -103553.79   -94440.457     221.3054    20724    226463.95   -27.377075   -70.665448    46.244126   -57.709902     435.2137    23.493379    22.148843   0.43074851    435.64445   -9.6114018   -465.06192 
     700   -103452.24   -94440.359    218.84182    20724     226348.1    44.023244    18.525231    56.749663    56.794836     434.9798    23.493683     22.14913    0.5477002     435.5275   -13.317088   -467.58491 
     800   -103598.76    -94411.65    223.09688    20724    226334.31   -8.6701338    58.297329   -5.3303676   -78.977363    435.13252    23.488844    22.144568   0.47133991    435.60386   -21.916589   -488.50873 
     900   -103468.51   -94352.559    221.36893    20724    226379.72   -22.821161   -89.488225     72.91019   -51.885449    435.29443    23.486831     22.14267   0.39038415    435.68482    -16.03684   -551.38274 
    1000   -103502.53   -94393.189    221.20857    20724    226391.91   -56.740087   -87.683958    46.056371   -128.59267    435.22607    23.489308    22.145005   0.42456312    435.65064    -2.847158   -521.82571 
    1100   -103389.92   -94309.258    220.51215    20724    226369.56    41.531827   -5.7350726     96.10596    34.224595    435.12131    23.490976    22.146578   0.47694611    435.59825  -0.93534936   -613.55264 
    1200   -103525.04   -94285.339    224.37418    20724    226672.34   0.90802998    161.27918   -98.996319   -59.558775     435.2728     23.50259    22.157527   0.40120149      435.674    4.4185222    -635.2071 
    1300   -103474.03   -94294.599    222.91056    20724    226471.61   -11.610651    129.97266    204.98239   -369.78701    435.26904    23.492283     22.14781   0.40308037    435.67212    31.808519   -658.58552 
    1400   -103274.34   -94226.267    219.72058    20724    226579.58     18.38793    134.45666    165.79572    -245.0886     435.1678    23.500614    22.155665   0.45369781     435.6215    40.099406   -729.62871 
    1500   -103435.95   -94240.385    223.30234    20724    226466.52   -11.585154    68.064121    110.66189   -213.48147    435.12573    23.495887    22.151208   0.47473575    435.60046    11.669189   -694.67907 
    1600   -103318.03    -94171.94    222.10097    20724    226480.64    10.568696   -21.414034   -32.343695    85.463816     435.1892    23.494905    22.150283   0.44299919     435.6322   0.82881464   -752.51791 
    1700   -103267.66   -94131.239    221.86614    20724    226301.83    24.871322    124.10879   -366.28954    316.79471    435.20654    23.485161    22.141096   0.43433141    435.64087    8.0143847   -804.56154 
    1800   -103283.14   -94100.038    222.99976    20724       226574   -13.768048   -76.367356    149.43742    -114.3742    435.32007    23.496215    22.151517   0.37756385    435.69764    22.625631   -845.49609 
    1900   -103288.46   -94057.443    224.16313    20724    226522.86    53.150526    93.719978    153.84059   -88.108991    434.98224    23.502685    22.157617   0.54648246    435.52872    10.693294   -879.77478 
    2000   -103394.96   -94094.057    225.86024    20724    226486.77   -33.472579    48.713585   -45.458766   -103.67256    435.21551    23.494513    22.149913   0.42984409    435.64536    25.186572   -855.86808 
    2100   -103263.43   -94072.119    223.19903    20724    226282.44   -37.005481   -64.084558   -40.998337   -5.9335472    435.14948    23.485695    22.141599   0.46286079    435.61234    25.580671   -884.34546 
    2200   -103217.48   -94007.318    223.65678    20724    226616.53    5.6401787   -29.333133    58.539168   -12.285499    435.44646     23.49501    22.150381   0.31436987    435.76083    27.775672   -943.97637 
    2300   -103289.02   -93957.219    226.61072    20724    226542.05   -88.312171   -172.62121    42.226489   -134.54179    435.18754    23.498135    22.153328   0.44382861    435.63137    20.230602   -985.14131 
    2400   -103251.09   -93986.263    224.98436    20724    226334.78   -31.576237   -59.475099   -53.143688    17.890077    435.18756    23.487383    22.143191   0.44382112    435.63138    24.971208   -971.07844 
    2500   -103230.71    -94004.15    224.05496    20724    226322.69    5.9210055   -66.711811      354.023   -269.54817    435.22204    23.485825    22.141722   0.42657836    435.64862      24.9539   -956.31626 
    2600    -103190.7   -93956.992    224.22849    20724    226297.24   -27.461258    49.231055   -250.38914    118.77431    434.93802    23.492171    22.147705   0.56859036    435.50661    20.628413   -997.53565 
    2700    -103200.1   -93956.554    224.46746    20724     226509.8   -5.4623132    142.34375   -169.64326    10.912573    435.26073    23.494487    22.149888   0.40723312    435.66797    22.940043    -996.4686 
    2800   -103180.22   -93953.999    224.04674    20724    226310.29    27.246906    -21.71522   -25.649401    129.10534    435.24281    23.484621    22.140587   0.41619364    435.65901    9.2195903    -994.0499 
    2900    -103195.2   -93926.103    225.08787    20724    226331.19    16.455104    -4.262824    237.75433    -184.1262    434.99603    23.492366    22.147889   0.53958454    435.53562    16.738586   -1027.6771 
    3000   -103211.88   -93934.009    225.30101    20724    226421.72   -35.415243   -59.042119    141.04346   -188.24707    435.23282    23.490672    22.146291   0.42119149    435.65401    8.2100299   -1008.2494 
    3100   -103110.29   -93868.731    224.41913    20724    226420.63    47.463733    124.74764    162.17774   -144.53418     435.0351    23.495953     22.15127   0.52004937    435.55515    4.2929184   -1074.9681 
    3200   -103203.57   -93896.449    226.01119    20724    226520.04   -8.2027375    6.4401511   -48.884098    17.835735    435.21426    23.496272    22.151571   0.43047088    435.64473     21.83763   -1061.8528 
    3300   -103196.52   -93895.486     225.8635    20724    226453.89    49.343361   -56.454709   -13.623901    218.10869      435.365    23.488774    22.144502   0.35510036     435.7201    12.173886    -1058.018 
    3400   -103132.75   -93835.626    225.76846    20724    226447.98   -1.6472625   -165.20601   -9.9432321    170.20746    435.40377    23.487422    22.143228   0.33571566    435.73948    19.785324   -1123.8858 
    3500   -103058.05   -93785.399    225.17424    20724    226646.77    47.774746   -30.828059    248.92389   -74.771593    435.42432    23.497174    22.152422   0.32543829    435.74976    44.051775   -1195.0597 
    3600   -103135.84   -93786.088    227.04653    20724    226556.74    26.416068    13.759786    23.442539     42.04588    435.38686    23.493518    22.148974   0.34417071    435.73103    23.164896   -1177.6803 
    3700   -103068.65   -93761.052    226.02299    20724    226489.98    47.637591    124.20106   -77.144213    95.855929    435.41365    23.489334     22.14503   0.33077614    435.74442    39.913215   -1220.9911 
    3800   -103224.26   -93794.059    229.00003    20724    226603.88    -76.22796   -83.946302   -28.744198   -115.99338    435.53625    23.491932    22.147479   0.26947496    435.80573     32.19975   -1174.4071 
    3900   -103192.09   -93804.299    227.97021    20724     226429.3    2.7950932    125.57759   -34.640883   -82.551425    435.28075    23.489772    22.145443   0.39722506    435.67797    43.010665   -1184.4293 
    4000   -103129.15   -93768.618    227.30826    20724    226582.64   -33.297981   -9.5288204   -111.10133    20.736207     435.3357    23.496241    22.151542   0.36974927    435.70545    34.647805   -1205.7586 
    4100      -103106   -93740.122    227.43808    20724    226558.49    11.877558    2.2963978   -4.8060272    38.142303    435.40823    23.493032    22.148516    0.3334825    435.74172      43.7792   -1248.1482 
    4200   -103064.81   -93728.176    226.72796    20724    226509.07   -53.056004   -155.38041    83.207525   -86.995127     435.2187    23.495583    22.150922   0.42824859    435.64695    22.456681   -1237.2142 
    4300   -103060.12   -93752.864    226.01464    20724    226570.03    68.778254   -5.9264441    272.91887   -60.657662    435.16502    23.500195    22.155269   0.45509209    435.62011    55.027228   -1250.7098 
    4400   -103120.92   -93706.934    228.60644    20724    226460.31   -90.016653   -308.20805   -211.75775    249.91584    435.36389    23.489137    22.144845   0.35565739    435.71954    40.377059   -1279.7286 
    4500   -102963.33   -93730.768    224.20071    20724    226409.68    34.411406     71.93018   -188.08485    219.38889    435.15705    23.492092    22.147631   0.45907677    435.61612    69.110485   -1291.9384 
    4600   -103091.77   -93680.772    228.53392    20724    226486.64   -11.758155   -80.184098    182.15938   -137.24975    435.31594    23.491796    22.147352   0.37962969    435.69557    40.693003   -1310.7039 
    4700   -103029.75   -93637.067    228.08908    20724    226606.23   -53.257745    -75.98751    167.33653   -251.12226    435.39499    23.495864    22.151187   0.34010514    435.73509    52.447371   -1361.3511 
    4800   -102988.42   -93644.783    226.89811    20724    226438.16    98.426676    160.59114    38.681752    96.007136     435.2712    23.490489    22.146119   0.40199992     435.6732    54.919168   -1368.8863 
    4900   -102953.66    -93584.63    227.51479    20724    226667.97    -35.01063    40.777107   -51.237939   -94.571059    435.48251    23.496703    22.151978   0.29634469    435.77886    48.273475   -1409.7459 
    5000   -102890.11   -93581.501    226.04751    20724    226584.19     37.11257   -103.27803     27.84415    186.77159    435.18459      23.5004    22.155463   0.44530312     435.6299     56.43842   -1428.4425 
    5100   -102912.43   -93554.503    227.24506    20724     226602.5     74.29596    221.95216   -71.736161    72.671878    435.36359    23.496518    22.151803   0.35580597    435.71939    61.083672   -1463.7192 
    5200    -102916.8    -93515.24    228.30455    20724    226537.38   -17.598153   -133.39141    175.58985   -94.992906    435.35012    23.493505    22.148963   0.36254229    435.71266    38.939538   -1477.7039 
    5300   -102879.62   -93513.174      227.452    20724    226574.31    35.348666    85.394669    253.65054   -232.99922    435.62342    23.488049    22.143818   0.22589169    435.84931    67.727137   -1512.1128 
    5400   -102851.41   -93468.695     227.8471    20724    226592.98   -21.702812   -7.1949202   -158.17882     100.2653    435.33559     23.49678     22.15205    0.3698026     435.7054    46.297955    -1531.131 
    5500   -102939.45   -93469.097    229.97529    20724    226516.14   -57.807016    53.683034   -247.01452    19.910434    435.75976    23.481359    22.137512   0.15771786    435.91748    63.738302   -1551.6053 
    5600   -102812.96   -93444.834    227.49277    20724    226660.74    72.051724   -35.026457    271.59372   -20.412093    435.71153    23.490153    22.145802    0.1818362    435.89336    39.266731   -1552.3863 
    5700   -102808.16   -93440.505    227.48137    20724    226603.18   -93.442314   -221.69531   -84.070623    25.438995    435.70794    23.487266    22.143081    0.1836275    435.89157    66.735862   -1578.6062 
    5800   -102930.86   -93434.144    230.61536    20724    226660.01    56.032902    82.145687    5.1542158    80.798804    435.46244    23.496832    22.152099   0.30637755    435.76882    47.415096    -1575.336 
    5900   -102840.03    -93416.08    228.84835    20724    226629.37   -75.616953    26.450833    154.03679   -407.33849    435.55422    23.492769    22.148268   0.26049118    435.81471    62.298335   -1601.2019 
    6000   -102895.13   -93403.132    230.50075    20724    226453.06   -5.3249015    119.90114      193.003   -328.87884    435.64476    23.481188     22.13735   0.21521985    435.85998     54.53614   -1616.4921 
    6100   -102894.94   -93363.121    231.46767    20724    226500.43   -38.157501   -18.452882   -200.90184    104.88222    435.66087     23.48321    22.139256   0.20716609    435.86803    76.068814   -1676.6253 
    6200   -102772.24   -93308.093    229.82456    20724    226599.72     53.17791   -6.6325241   -185.30905     351.4753    435.60222    23.489938    22.145599   0.23649174    435.83871    35.128516   -1692.7096 
    6300   -102789.84   -93339.153    229.49763    20724    226400.39    47.955111   -37.256761   -54.590511     235.7126    435.23592    23.489482    22.145169   0.41963818    435.65556     68.69459   -1702.3645 
    6400    -102815.4   -93334.648    230.22772    20724    226568.59   -25.584668   -150.39323   -14.165283    87.804504    435.39824    23.493825    22.149264   0.33847856    435.73672    46.803814   -1678.4422 
    6500   -102864.63   -93316.967    231.85245    20724    226487.51    -49.75575    9.9605234   -143.85792   -15.369855    435.29977    23.492277    22.147805   0.38771448    435.68749    47.354268   -1699.3625 
    6600   -102855.16    -93300.69    232.01789    20724    226578.39   -101.21176    57.153782   -218.39039   -142.39867    435.38408    23.494715    22.150103   0.34556149    435.72964    53.833712   -1718.1297 
    6700   -102808.25   -93266.255    231.71498    20724    226647.34     50.71916     167.0372    121.20948   -136.08919    435.34282    23.499403    22.154523   0.36618984    435.70901     51.00062   -1756.1036 
    6800   -102751.94   -93265.315    230.37034    20724    226483.75    51.037022    39.520955    278.98988   -165.39977    435.38846     23.48969    22.145366   0.34337047    435.73183    57.465085   -1769.0766 
    6900   -102790.77   -93192.691    233.07697    20724    226582.95   -74.765423   -35.213407   -166.35624   -22.726621    435.51835     23.49133    22.146911   0.27842634    435.79677    38.788067   -1815.3325 
    7000   -102770.11   -93224.519    231.80215    20724    226328.16    -70.35212   -80.879811    -88.93568    -41.24087    435.13843    23.488365    22.144117   0.46838278    435.60682    42.818742   -1796.1135 
    7100   -102770.81   -93185.481    232.76725    20724    226707.39   -13.635198    41.502441   -71.521476   -10.886559    435.24368    23.505193    22.159981   0.41575987    435.65944    50.086463   -1835.7913 
    7200   -102669.44   -93134.043    231.55464    20724    226365.88    54.223509    172.19478   -67.772073    58.247824    435.04844    23.492752    22.148252   0.51338098    435.56182    23.898164   -1874.6473 
    7300   -102750.46   -93149.955    233.13582    20724    226363.18   -29.751649    71.866673    191.46681   -352.58843    435.24574    23.487287      22.1431   0.41472805    435.66047    24.591061   -1856.2432 
    7400   -102705.45    -93119.97    232.77098    20724    226348.17    23.688243   -121.56013    352.07806    -159.4532    435.15251    23.489024    22.144738    0.4613461    435.61385    21.890397   -1887.7235 
    7500   -102809.34   -93135.682    234.91221    20724    226537.86   -29.776314   -20.873221    -129.3694    60.913674     435.3225    23.494275    22.149689   0.37634957    435.69885    19.150764   -1865.2596 
    7600   -102767.51   -93118.245     234.3199    20724    226400.42   -12.659639   -149.39118    -254.1256    365.53786    435.14541    23.491926    22.147474   0.46489407    435.61031    25.993887   -1891.5755 
    7700    -102752.6   -93131.161    233.64403    20724    226386.03   -11.425448    35.478224    51.055769   -120.81034    435.11549    23.491987    22.147531    0.4798546    435.59535    25.504123   -1881.5431 
    7800   -102666.51   -93089.597    232.56275    20724    226382.08    95.503219    155.14063   -67.926884    199.29591    435.11109    23.491901     22.14745   0.48205579    435.59314    31.260133   -1932.9855 
    7900   -102651.43   -93097.866    231.99577    20724    226397.21    4.8818544    89.695408   -55.210708   -19.839137    435.18846    23.490598    22.146221    0.4433707    435.63183    33.560981   -1924.4194 
    8000   -102603.95   -93081.567    231.23868    20724    226430.52    -22.30207    73.210755    25.491848   -165.60881    435.08392    23.495148    22.150511   0.49563805    435.57956    28.191726   -1933.2869 
    8100   -102571.33   -93060.287    230.96329    20724    226571.05    75.631974    103.37165    279.07001   -155.54574    435.46203    23.492232    22.147762   0.30658635    435.76861    54.746661   -1983.7637 
    8200   -102649.18   -93064.118    232.76067    20724    226274.57   -15.304461    -195.8963    179.95087   -29.967961    435.01359    23.488954    22.144672   0.53080608    435.54439    46.976773   -1976.9871 
    8300   -102623.58   -93028.156    233.01242    20724    226504.03    11.937737    210.93428    -25.68076   -149.44031    435.17859    23.496405    22.151696   0.44830309     435.6269    60.685656   -2022.4289 
    8400   -102690.55   -93039.572    234.36141    20724     226462.9   -67.725387    22.164308   -113.07672   -112.26375    435.25448    23.492223    22.147754   0.41035797    435.66484    45.601486   -1995.6411 
    8500   -102587.83   -92991.337    233.03827    20724    226308.92    20.761569     219.6614   -92.622289   -64.754399    435.24822    23.484404    22.140382   0.41348836    435.66171    28.391436   -2036.8562 
    8600   -102658.57   -92995.353    234.65875    20724    226507.55   -46.689145   -59.759854    29.890329   -110.19791    435.35601    23.491799    22.147354   0.35959357    435.71561    29.962843   -2026.1318 
    8700   -102554.37   -92967.544    232.80357    20724    226507.69    91.145608    193.52751    197.51292    -117.6036    435.08288    23.499179    22.154312   0.49615798    435.57904    25.019568   -2055.3933 
    8800   -102642.08   -92945.318    235.47313    20724    226664.23    -15.68769   -181.11104   -84.406571    218.45454    435.40663    23.498557    22.153725   0.33428526    435.74091    7.4020133   -2051.9036 
    8900   -102535.39   -92963.707    232.43585    20724    226629.14    9.2537695   -66.817339   -47.330201    141.90885    435.14973    23.503673    22.158548   0.46273726    435.61246    19.677524   -2047.4884 
    9000   -102455.97   -92950.814     230.8204    20724    226584.25    85.117644    124.64885   -68.543732    199.24781    435.39863    23.494626    22.150019   0.33828305    435.73692    18.741634   -2065.6456 
    9100   -102627.75   -92938.666    235.28669    20724    226743.78   -38.590104   -224.87126    43.283131    65.817815    435.74011    23.493685    22.149132   0.16754262    435.90766    33.847945   -2085.6161 
    9200    -102446.7   -92884.329    232.20966    20724    226523.62    34.173271   -78.751458    73.303303    107.96797     435.3646    23.492401    22.147921   0.35529901     435.7199    17.880244   -2132.8681 
    9300   -102556.36   -92872.839    235.15175    20724    226601.66   -44.359123   -287.87735    46.405028    108.39496     435.4461    23.494248    22.149663   0.31454816    435.76065    32.613071   -2157.7862 
    9400   -102582.49   -92877.644    235.66962    20724    226878.52    87.251484    181.83114   -16.401404    96.324715    435.60507    23.504306    22.159146   0.23506633    435.84013    11.050054   -2133.2536 
    9500   -102599.61   -92899.883     235.5453    20724    226655.02   -62.320789   -208.78179   -189.47268    211.29211    435.34057    23.499862    22.154956   0.36731517    435.70788    27.917505   -2128.8418 
    9600   -102589.17   -92887.134    235.60131    20724    226690.18   -15.752493    177.54026   -205.17323   -19.624513    435.19554      23.5056    22.160365    0.4398303    435.63537    21.083111   -2135.7641 
    9700   -102481.29   -92850.437     233.8727    20724    226481.36   -34.317793    21.708017   -164.41378    39.752381    435.23998    23.493572    22.149026   0.41761191    435.65759    12.323178   -2169.7916 
    9800   -102554.77   -92849.013    235.69155    20724    226531.94    -20.55164    74.919904    91.615191   -228.19002    435.05843    23.501098     22.15612   0.50838534    435.56681     1.456942   -2159.5021 
    9900   -102437.51   -92845.995    232.91744    20724    226459.03   -14.868709   -50.137223   -111.78851    117.31961    435.00042    23.498882    22.154031    0.5373881    435.53781   0.10291452   -2163.3997 
   10000   -102485.12   -92822.665    234.64012    20724    226604.66    13.418512    31.075215   -490.81138    499.99171    435.33363    23.497439    22.152671   0.37078739    435.70441     25.18764   -2211.8687 
   10100   -102422.17    -92791.19    233.87574    20724       226648   -3.8473629   -52.168075   -172.01436    212.64035    435.28588    23.500974    22.156004   0.39466001    435.68054    19.294657   -2236.5599 
   10200   -102447.09   -92795.936    234.36578    20724    226750.55    28.761549    -64.78732   -31.843909    182.91588    435.50925    23.500262    22.155332   0.28297687    435.79222    27.130187   -2241.0042 
   10300   -102498.96   -92813.782    235.19181    20724       226762   -31.193375    -56.93298    52.051924   -88.699068    435.46246    23.502118    22.157082   0.30637146    435.76883    41.449796   -2234.4645 
   10400   -102481.54   -92776.492    235.67443    20724     226593.4    44.786234    124.22926    59.446244   -49.316806    435.33115    23.496922    22.152184   0.37202563    435.70317    37.303658   -2276.4644 
   10500    -102434.1   -92754.721    235.05113    20724    226452.84   -64.847097    55.518131    63.898092   -313.95751    435.37532    23.488441    22.144188   0.34994102    435.72526    25.229945    -2285.899 
   10600   -102492.99   -92762.122    236.30138    20724    226577.71   -2.3230906    118.78055   -128.93562    3.1858056    435.46384    23.492529    22.148042    0.3056812    435.76952    25.816448    -2281.859 
   10700   -102469.27   -92730.881    236.48403    20724    226581.96   -35.616962    24.458766   -169.71345    38.403794    435.37243    23.495214    22.150574   0.35138574    435.72381     46.14826   -2331.3467 
   10800   -102453.76   -92760.765    235.38165    20724    226580.49   -73.593385   -150.72091   -29.834671   -40.224571    435.43568    23.493432    22.148894   0.31976124    435.75544    64.725108   -2319.5752 
   10900   -102435.77   -92758.819    234.99222    20724    226617.83   -17.380267   -71.914941    31.890524   -12.116384    435.73056    23.487416    22.143222   0.17231939    435.90288    56.003895   -2315.0737 
   11000   -102389.35   -92743.253    234.24291    20724    226547.65     57.72113   -40.264153    89.033729    124.39382    435.44799    23.491397    22.146975   0.31360596    435.76159    71.697067   -2353.6647 
   11100    -102366.9   -92689.682    234.99873    20724    226669.42    19.819623   -38.877003    190.92509   -92.589218    435.66208    23.491935    22.147483   0.20655987    435.86864    57.468248   -2388.7964 
   11200   -102419.92   -92720.051    235.54857    20724    226684.98   -2.1923617    40.208667   -90.652183     43.86643    435.40761    23.499606    22.154714   0.33379261    435.74141    69.063458   -2369.0715 
   11300   -102329.54   -92671.773    234.52635    20724    226508.46   -117.11238   -193.53238   -151.72202   -6.0827572    435.43711    23.489659    22.145336   0.31904432    435.75616    71.642231   -2420.4007 
   11400   -102368.02    -92684.18    235.15936    20724    226568.81    58.507708    22.945442    177.52839   -24.950711    435.36725    23.494673    22.150063   0.35397531    435.72122    84.568374   -2426.9848 
   11500   -102341.56   -92651.104    235.32014    20724    226499.64    9.2464475    78.297305    37.985565   -88.543528    435.27102    23.493683     22.14913   0.40209219    435.67311    80.553011   -2456.5468 
   11600   -102449.63   -92688.165    237.04451    20724    226719.02   -19.025753   -50.691171    153.80616   -160.19225    435.47988     23.49942    22.154539   0.29765945    435.77754    91.545126   -2423.7845 
   11700   -102357.01    -92669.17    235.25654    20724    226628.93    80.183588    98.823682   -126.43638    268.16346    435.21579    23.501878    22.156856   0.42970531    435.64549    65.044961    -2427.167 
   11800   -102322.14   -92704.087    233.56181    20724    226512.67    60.437142    9.3213308   -102.82018    274.81027    435.48665    23.488541    22.144282   0.29427531    435.78092    83.074678    -2412.069 
   11900   -102436.59   -92627.776    238.19421    20724    226577.34   -56.748239   -47.104016   -122.43785   -0.7028481    435.39189     23.49445    22.149853   0.34165269    435.73355    61.540733   -2461.2258 
   12000   -102325.27   -92618.837      235.708    20724    226460.91    66.668814    168.71747    24.583833     6.705136    435.10053    23.496276    22.151575   0.48733686    435.58786    44.983294   -2461.8091 
   12100   -102384.35   -92582.092    238.03515    20724    226626.82   -27.479271    136.82354   -96.479258    -122.7821    435.27291    23.500226    22.155299   0.40114533    435.67405    61.819774   -2510.2039 
   12200   -102304.09   -92577.407    236.19987    20724    226566.23   -14.664511   -51.393065     17.48944   -10.089908    435.29391    23.496518    22.151803   0.39064683    435.68455    70.649605   -2522.7829 
   12300   -102366.24    -92604.21    237.05815    20724    226412.81    9.9230273    74.969345    227.86038   -273.06065    434.86172     23.50023    22.155303   0.60674029    435.46846    72.828682   -2507.1749 
   12400   -102324.33   -92588.648    236.41831    20724    226644.55   -17.130744    22.836398    40.116661   -114.34529    435.12398    23.505167    22.159957   0.47560893    435.59959    73.146859   -2515.5553 
   12500   -102193.37   -92572.669    233.62619    20724    226462.21    51.217903    -58.68115    14.443621    197.89124    435.11616    23.495921     22.15124   0.47951799    435.59568    77.496408   -2545.3665 
   12600   -102399.85   -92589.965    238.22023    20724    226342.04   -102.22113   -352.66616    -172.5365    218.53928    435.01672    23.492371    22.147893   0.52923821    435.54596    84.902253   -2534.0569 
   12700   -102169.64   -92467.758    235.59752    20724    226428.99    102.60399    203.60288    68.436983     35.77212    435.00156    23.497293    22.152533   0.53682232    435.53838    48.662686   -2627.3026 
   12800   -102196.61   -92477.575    236.01408    20724     226476.5    9.6660671    49.611274    210.84922    -231.4623    435.09325    23.497281    22.152523   0.49097479    435.58423    41.266608   -2604.4827 
   12900   -102175.64   -92491.946    235.15592    20724    226599.46   -48.034771   -114.36173    94.893215    -124.6358    435.25219    23.499367    22.154489   0.41150473     435.6637    57.479779   -2600.7357 
   13000   -102316.59   -92462.637    239.29042    20724     226680.4    11.024516    4.1670486    1.0833786    27.823119    435.28961    23.502554    22.157493   0.39279323    435.68241    65.532279   -2643.5284 
   13100   -102166.83   -92485.409    235.10077    20724    226403.62   -2.1214055    205.44832   -194.73098   -17.081554    435.10505    23.493182    22.148658   0.48507615    435.59012    55.195108   -2618.1734 
   13200   -102172.43   -92395.476    237.42065    20724    226525.52   -2.7448976   -135.99979   -13.336007     141.1011    435.08533    23.500038    22.155121   0.49493479    435.58027    59.689143   -2710.0892 
   13300   -102201.23   -92417.476    237.58582    20724    226569.51    18.044848   -90.923553    150.23965   -5.1815564     435.2994     23.49654    22.151824   0.38790103     435.6873    55.060311   -2683.8414 
   13400   -102167.19   -92390.507    237.41392    20724    226430.96   -85.837059   -104.23377   -26.551334   -126.72607    434.99531    23.497563    22.152788   0.53994441    435.53526    51.485193   -2705.1407 
   13500   -102038.62   -92368.166    234.83426    20724     226574.1   -3.9724655    83.525022   -11.164658   -84.277761    434.93254    23.506685    22.161388   0.57132784    435.50387    51.394438   -2727.9671 
   13600   -102164.21   -92367.759    237.89412    20724    226353.28   -38.762205   -63.643995   -13.027779   -39.614841    434.85583      23.4973     22.15254   0.60968354    435.46552    39.557891   -2724.0108 
   13700   -102139.31   -92376.417    237.07907    20724    226377.04    30.531834   -53.044419    29.595758    115.04416    435.01705    23.494178    22.149597   0.52907645    435.54612    37.621732   -2717.9916 
   13800      -102150   -92367.316    237.55967    20724    226384.71    108.67807    343.86441   -18.658895   0.82869366    434.85644    23.498915    22.154063   0.60937856    435.46582     49.86188   -2744.8392 
   13900   -102226.77   -92378.861    239.14375    20724    226511.91    52.270729   -1.3792584   -182.19317    340.38461    434.88396    23.504772    22.159584   0.59562072    435.47958    58.855691   -2737.7633 
   14000   -102154.41   -92340.292    238.32317    20724    226346.27    31.780229   -34.516441   -130.98901    260.84614    434.76024    23.499519    22.154632   0.65748221    435.41772    34.498296     -2755.73 
   14100   -102187.54   -92330.742    239.35944    20724    226473.45   -60.006453   -18.626534    131.64382   -293.03665    434.93948    23.501276    22.156289   0.56786061    435.50734    24.528672    -2748.666 
   14200   -102131.05   -92363.165    237.20029    20724    226363.73   -13.444115    196.51591   -76.718002   -160.13025    434.89051    23.496905    22.152168   0.59234584    435.48285    32.931043   -2730.5438 
   14300   -102056.51   -92285.667    237.27223    20724    226371.43   -8.7209797   -50.863318   -43.329455    68.029834    434.73022    23.501637    22.156629   0.67248945    435.40271    43.992589   -2818.3617 
   14400   -102089.52   -92310.626    237.46766    20724    226377.71    134.99362    162.03266    16.991451    225.95673    434.50292    23.508109     22.16273   0.78614142    435.28906    46.759858   -2804.2229 
   14500   -102154.01   -92286.822    239.61173    20724    226489.12   -30.609157    78.938635     -54.9276   -115.83851    434.82278    23.505243    22.160028   0.62621017    435.44899    43.288558   -2816.7395 
   14600      -102073   -92246.455     238.6248    20724    226297.47   -105.85583    145.70985   -249.28003   -213.99729    434.70636    23.498442    22.153617   0.68441813    435.39078    28.493458   -2843.5395 
   14700   -102140.59   -92226.879    240.74153    20724     226360.6    26.049276    131.83661   -96.033399    42.344614    434.81293    23.498839    22.153991   0.63113695    435.44406     18.85291   -2860.2875 
   14800   -102166.64   -92265.829    240.42826    20724    226425.19    10.694213   -38.376945   -21.151747    91.611332    434.87857    23.500418    22.155479   0.59831396    435.47689    38.570506   -2838.8428 
   14900   -102171.84   -92253.143    240.86263    20724    226448.71     26.06753    58.407443    187.55769   -167.76255    434.81834    23.503266    22.158164   0.62842968    435.44677    39.314054   -2852.9038 
   15000   -102108.74   -92207.134    240.44762    20724    226389.94   -87.400537     35.28382    -60.60559   -236.87984    434.96734     23.49619    22.151494   0.55393012    435.52127    27.368776   -2881.9484 
   15100   -102108.56   -92234.518    239.77826    20724    226310.36   -78.666034   -106.17717   -42.281799   -87.539136    434.83458    23.495646    22.150981   0.62031228    435.45489    40.123543    -2874.499 
   15200   -102074.01   -92207.917    239.58511    20724    226512.72   -16.110664     159.9098   -163.43376   -44.808028    434.61573    23.512066    22.166461   0.72973532    435.34546    41.707622   -2897.5736 
   15300   -102064.86   -92202.833    239.48645    20724    226092.44    17.237869   -101.62837   -46.166893    199.50887    434.56931    23.491498     22.14707   0.75294551    435.32225    40.890512   -2918.3446 
   15400   -102019.06   -92186.438    238.77246    20724     226354.1    1.6034317   -17.349533    59.448638    -37.28881    434.78848    23.499162    22.154296   0.64335926    435.43184    46.605921   -2931.4442 
   15500   -101919.56   -92166.664    236.83633    20724    226369.58    51.356188    40.859099    15.357802    97.851663    434.86042    23.498022    22.153221   0.60739037    435.46781    47.252381   -2956.1339 
   15600   -102028.79    -92202.44    238.62011    20724    226323.08    18.453791    159.97186    44.247275   -148.85776    434.61318    23.502291    22.157245   0.73101242    435.34419     47.64719   -2924.0779 
   15700   -101954.23     -92161.6     237.8012    20724    226467.52   -41.354364   -133.75436    152.42503   -142.73376    434.87729    23.502649    22.157583   0.59895582    435.47624    48.873272   -2956.8164 
   15800   -101964.01    -92211.72    236.82161    20724    226118.16   -22.115045   -88.849552    2.6446814    19.859736    434.43744    23.496399    22.151691   0.81888001    435.25632    62.934808   -2933.4573 
   15900   -102046.17   -92182.883    239.51711    20724    226364.99    77.206584    171.13454    102.59317   -42.107959    434.69869    23.502155    22.157117   0.68825668    435.38694     45.81183    -2944.372 
   16000   -102059.52   -92130.852    241.10479    20724    226369.07   -40.009817   -24.337613    50.758236   -146.45007    434.82379    23.498985    22.154129   0.62570433     435.4495    47.416139   -2993.6197 
   16100   -102033.11   -92119.048    240.75002    20724    226360.25    23.663063    40.402978   -49.981162    80.567372    434.75667    23.500341    22.155407    0.6592673    435.41593    46.089386   -3007.1035 
   16200   -101872.81   -92090.357    237.55421    20724    226231.27   -51.155957     32.21164   -81.749076   -103.93043    434.57213    23.498633    22.153797    0.7515349    435.32367    34.358108   -3024.6934 
   16300   -101940.46   -92104.267    238.85918    20724    226409.05    18.084828   -35.888522    145.55381   -55.410801    434.66887    23.505248    22.160033   0.70316317    435.37204    25.124887   -3000.7038 
   16400   -101909.68   -92099.221     238.2343    20724    226391.59    53.844528    193.73975   -81.622393    49.416226    434.66069    23.504563    22.159387   0.70725611    435.36794    46.579312   -3030.0562 
   16500   -101791.74    -92082.59    235.77404    20724    226166.93   -18.363517     223.3136   -287.45914    9.0549831    434.60789    23.494324    22.149735   0.73365633    435.34154    30.411084   -3033.5289 
   16600   -101873.13   -92035.045    238.90516    20724    226328.63   -7.4416979    43.151534   -85.369115    19.892488    434.83857    23.496487    22.151773   0.61831253    435.45689    26.827669   -3076.2644 
   16700   -101847.13   -92003.168    239.04791    20724    226131.21    26.218843    21.873295   -148.87661    205.65984    434.64125    23.491568    22.147136   0.71697482    435.35823    18.042511     -3107.63 
   16800   -101864.43   -92028.239    238.85905    20724    226232.54   -7.8082297   -192.53609    111.07826    58.033142    434.47767    23.501253    22.156267   0.79876702    435.27643    9.3197966   -3072.2628 
   16900   -101848.89   -92037.177    238.26468    20724    226296.19    70.551096    39.822375    71.079512     100.7514      434.834    23.494926    22.150302   0.62059854     435.4546    16.767655   -3074.6984 
   17000   -101894.57   -92003.913    240.18168    20724     226389.6    11.821224    -106.0884   -59.740099    201.29217    434.74801    23.502099    22.157064   0.66359283    435.41161   -2.3144409   -3085.9774 
   17100    -101831.2   -92014.404    238.38797    20724    226481.91    57.634729   -35.573662    23.242643    185.23521    434.71794    23.507703    22.162348    0.6786295    435.39657    34.968783   -3115.5984 
   17200   -101809.19   -91977.572    238.74807    20724     226238.6    21.213769    153.42416   -43.459962    -46.32289    434.51224    23.500633    22.155682   0.78148031    435.29372    29.844721   -3151.1686 
   17300   -101885.91   -91992.021    240.26018    20724    226323.38   -29.071421   -231.90124   -88.912475    233.59946    434.58629    23.503033    22.157945    0.7444529    435.33075    22.820947   -3126.3929 
   17400   -101788.07   -91966.063    238.51475    20724    226315.35    60.609819    1.6072601   -32.095478    212.31767    434.25485    23.511584    22.166006   0.91017361    435.16503    31.147467   -3165.2229 
   17500   -101943.13    -91932.82    243.08744    20724    226411.49   -103.07872     -262.476   -68.038418    21.278268    434.57075    23.508028    22.162654   0.75222554    435.32297    39.026316   -3200.8726 
   17600   -101915.96   -91958.938    241.79322    20724    226170.32   -93.177952    -150.8361   -106.65159   -22.046166    434.41286    23.499774    22.154872   0.83116851    435.24403     41.74738   -3184.3642 
   17700   -101811.99   -91896.628    240.78172    20724    226343.44     35.15425    -31.10616    72.987833    63.581077    434.33176    23.510961    22.165419   0.87172228    435.20348     2.599773   -3209.3189 
   17800   -101783.71   -91917.767    239.58162    20724    226139.46   -27.867803    18.959967    20.433683   -122.99706     434.3327    23.500339    22.155405    0.8712488    435.20395     22.20923   -3211.3526 
   17900   -101777.73   -91939.847    238.90016    20724     226290.8    71.950746     168.9882    154.04333   -107.17929    434.68016    23.498804    22.153958   0.69752113    435.37768    27.463448   -3197.0203 
   18000   -101907.07   -91916.636    242.60463    20724    226338.69   -12.955989    17.281828   -113.13204     56.98224    434.40896    23.508625    22.163217   0.83311786    435.24208    14.213297   -3204.4482 
   18100   -101792.62    -91878.34    240.75546    20724    226243.85    35.956254    16.221772     42.44343    49.203559    434.38111    23.504453    22.159283   0.84704597    435.22815   -13.221251   -3220.0624 
   18200   -101817.09   -91899.391    240.83845    20724    226148.62    25.705197   -202.01594    7.0272478    272.10429    434.12687    23.506385    22.161106   0.97416642    435.10103    15.370721   -3231.9113 
   18300   -101857.07   -91878.115      242.326    20724    226298.32    74.640466    131.43447   -225.77038    318.25731    434.32204     23.50888    22.163457   0.87657832    435.19862    2.7978829   -3240.0738 
   18400   -101794.73   -91860.017    241.25155    20724    226283.21    39.896301   -3.8226815    54.185232    69.326351    434.46593    23.504202    22.159048   0.80463527    435.27056    8.2881972   -3262.8337 
   18500   -101823.34   -91887.363    241.28236    20724     226328.8    -25.14968   -11.207228   -72.496247     8.254434    434.45556     23.50685    22.161544   0.80981886    435.26538    17.321302   -3240.1111 
   18600   -101800.12   -91906.621    240.25063    20724    226220.89   -13.857471    -75.99248     41.82956   -7.4094922     434.5168     23.49959    22.154699   0.77920232      435.296    26.165446   -3234.6921 
   18700   -101829.46   -91847.121    242.40808    20724    226304.45    -59.11322   -67.953754   -127.90571    18.519806    434.59202    23.501895    22.156872   0.74158891    435.33361    -3.006664   -3261.4336 
   18800   -101751.54   -91845.831    240.54735    20724    226383.87   -42.201442    144.16913   -180.71776   -90.055695    434.64225    23.504661    22.159479   0.71647441    435.35873    9.7889779   -3275.4149 
   18900   -101721.09   -91805.418    240.78921    20724    226335.32    19.429548   -91.301715   -46.284643      195.875    434.54207    23.504849    22.159657   0.76656717    435.30863   -13.362405   -3297.0543 
   19000   -101731.47   -91800.582    241.15873    20724    226265.09   -12.289605    48.305262   -11.520156   -73.653921    434.39917    23.505067    22.159863   0.83801431    435.23719   -9.0887832   -3306.8518 
   19100   -101727.94    -91794.81    241.21304    20724    226410.55    16.638831   -101.23501    109.03756    42.113937    434.68527    23.504882    22.159688   0.69496415    435.38024   -16.079504   -3304.5845 
   19200   -101753.76   -91805.076    241.59075    20724       226306     -44.2809   -80.604372   -259.54894    207.31061    434.42849    23.506399    22.161118   0.82335645    435.25184    15.373652   -3329.3838 
   19300   -101686.87   -91772.779    240.75086    20724    226260.36    -91.78181   -135.56861    -309.3734    169.59658     434.6736    23.497401    22.152635   0.70080095     435.3744   -2.0118657   -3342.2781 
   19400   -101797.39   -91776.436    243.34587    20724    226389.37   -4.9628343   -32.113437    240.86681   -223.64188    434.62202    23.505493    22.160265   0.72659178    435.34861   -3.4158041    -3341.409 
   19500   -101750.93   -91765.677    242.47885    20724    226468.61   -19.962019    10.425658    120.34466   -190.65637    434.68751    23.507836    22.162473    0.6938458    435.38135   -15.847919   -3335.7166 
   19600   -101703.11   -91797.584    240.54276    20724    226426.68    35.342309    152.52623   -238.39226    191.89295    434.64522    23.506802    22.161499    0.7149884    435.36021   -8.9162733   -3314.6883 
   19700   -101663.78   -91762.137    240.44859    20724    226183.79   -13.818612   -122.32741   -66.118821     146.9904    434.29728    23.503601     22.15848   0.88896126    435.18624   -4.5676859   -3361.2544 
   19800   -101671.16   -91724.189    241.54932    20724    226471.32    44.113237   -162.80545    64.725646    230.41952    434.38901    23.516052    22.170219   0.84309475    435.23211   -14.597495    -3386.249 
   19900   -101703.61   -91760.739    241.44977    20724    226207.05    54.265422   -22.678069    40.572809    144.90153    434.42105    23.501461    22.156463   0.82707748    435.24812   -6.1751572    -3366.866 
   20000    -101824.9   -91793.416     243.6015    20724    226139.17   -86.584116   -49.746402   -86.202209   -123.80374    434.39107    23.498745    22.153902   0.84206444    435.23314   -18.682347   -3319.7747 
   20100    -101744.3   -91708.571     243.7047    20724    226230.31   -6.0300653   -97.518239   -26.356766    105.78481    434.02265    23.513453    22.167769    1.0262772    435.04892   -10.906855   -3416.3384 
   20200   -101672.64   -91717.377    241.75069    20724    226305.91   -32.579828   -68.131079    35.178052   -64.786456    434.25089      23.5112    22.165645   0.91215458    435.16305   0.44380728   -3415.2756 
   20300   -101706.37   -91749.346    241.79341    20724    226303.87    128.03113     138.2755    186.18925    59.628618    434.32244    23.509158    22.163719   0.87638225    435.19882   -5.2101832   -3385.7217 
   20400   -101677.82     -91715.1    241.93167    20724     226142.8   -37.096445    150.83874   -71.501769   -190.62631    434.20377    23.504001    22.158858   0.93571451    435.13949   -8.2211058   -3414.4086 
   20500   -101745.85   -91731.175    243.19346    20724    226021.53   -125.85607    -104.3803   -241.70512   -31.482785    434.23228    23.496927    22.152189   0.92146026    435.15374   -7.7889152   -3401.0669 
   20600   -101718.94   -91679.319    243.79904    20724    226118.36    68.203147    23.314505    36.698275    144.59666    434.14485    23.504326    22.159164   0.96517596    435.11002   -5.0205377   -3464.2919 
   20700   -101746.54   -91760.243    242.50422    20724    226131.07    51.435269    208.24204    50.553655   -104.48989    434.12953    23.505401    22.160178   0.97283688    435.10236    21.418041    -3408.805 
   20800   -101645.37   -91796.141    239.17559    20724    226076.41     2.957475     41.67749   -125.06887    92.263805    434.08193    23.503849    22.158714   0.99663384    435.07857    20.361254   -3371.7173 
   20900   -101737.35   -91765.781    242.14666    20724    226253.46   -33.955683    95.629935   -22.085261   -175.41172    434.25274    23.508426    22.163029   0.91122953    435.16397    20.821145   -3397.4822 
   21000   -101622.34   -91716.033    240.56187    20724    226287.92    10.396484    7.9196461    183.11137   -159.84156    434.40049    23.506218    22.160947   0.83735557    435.23784    6.8052783   -3433.9476 
   21100   -101647.96   -91669.239    242.32015    20724    226257.33   -32.915673    151.13911   -159.38462   -90.501514    434.29826    23.507395    22.162057   0.88846812    435.18673   -4.5493525   -3469.8731 
   21200   -101653.16   -91632.403    243.34097    20724    226388.91    -21.29402   -202.55965   -77.352675    216.03026    434.50926    23.508519    22.163117   0.78296767    435.29223   -7.9557733   -3500.3147 
   21300   -101572.56    -91631.54    241.40459    20724    226144.31   -78.748495   -171.51821    65.277017   -130.00429    434.19646    23.504277    22.159118   0.93936847    435.13583   -22.010898   -3493.7007 
   21400   -101667.09   -91644.498    243.38559    20724    226350.61   -32.809957   -28.467401    124.99356   -194.95603    434.50632     23.50661    22.161317   0.78444248    435.29076     16.54225   -3517.6233 
   21500   -101651.89    -91655.71    242.74412    20724    226375.72    36.137243    2.7535409    256.39341   -150.73523    434.42188    23.510198      22.1647     0.826662    435.24854    16.883154   -3510.7705 
   21600   -101547.27   -91627.009    240.90052    20724     226195.3    75.330947    40.069482    160.78452    25.138839    434.27556    23.504786    22.159598   0.89982017    435.17538   -1.6038976   -3527.7076 
   21700   -101626.01   -91658.188    242.05555    20724    226096.99   -56.698793   -67.754481   -314.03588    211.69398    434.21068    23.501433    22.156437   0.93225761    435.14294    19.340356   -3515.8102 
   21800   -101632.47   -91611.759    243.33982    20724    226183.32  -0.61102432    50.993312   -35.342288   -17.484097    434.12777    23.508164    22.162782   0.97371409    435.10149   -1.9686086   -3542.3055 
   21900    -101537.7    -91602.27    241.26906    20724    226124.02   -16.263878    67.611624   -247.58956     131.1863    433.86692    23.512148    22.166538    1.1041409    434.97106   0.74141485   -3556.5516 
   22000   -101579.99   -91531.962    244.00329    20724    226195.32   -24.535542   -131.52296    27.131097    30.785237    434.19819    23.506881    22.161573   0.93850513    435.13669    11.136088    -3638.291 
   22100   -101549.69   -91555.407    242.69808    20724    226189.58   -19.141047    72.604488   -57.319832   -72.707797    433.98415    23.512379    22.166757    1.0455257    435.02967    8.1390949   -3612.3424 
   22200   -101632.14   -91560.846    244.56823    20724    226180.89   -72.588579   -232.30688    37.838447   -23.297304    433.90825    23.513984    22.168269    1.0834751    434.99172    7.0564003    -3604.358 
   22300   -101509.44   -91529.807     242.3424    20724    226042.05   -13.042127    46.875787   -42.306494   -43.695673    434.20496    23.498732    22.153891    0.9351175    435.14008    4.8759874   -3640.5315 
   22400    -101614.6   -91576.335    243.76615    20724    226302.02   -35.509196   -15.671126   -217.29423    126.43777    434.20623    23.512207    22.166594   0.93448411    435.14072    26.987201   -3611.7445 
   22500    -101487.2    -91547.36    241.37602    20724    226152.65    38.584112   -260.39523    53.324716    322.82285    433.95363    23.511286    22.165726     1.060784    435.01442    41.112315   -3663.8369 
   22600   -101562.71   -91564.034    242.80478    20724    226117.64   -28.152394   -20.417345    127.74017   -191.78001    433.80857    23.513397    22.167716    1.1333165    434.94188    36.607133   -3640.0177 
   22700   -101568.69   -91581.702    242.52108    20724    226137.58    27.862697   -154.88342   0.36331861    238.10819    433.84375     23.51348    22.167794    1.1157235    434.95948    40.324997   -3631.2113 
   22800   -101512.19   -91552.783    241.85111    20724    226011.38   -4.9811663    -38.57729   -38.486553    62.120343    433.76867    23.508953    22.163526    1.1532634    434.92194    25.543399   -3647.1896 
   22900   -101618.03    -91581.08    243.73416    20724    225980.64    57.381583    180.92845    107.97831   -116.76201    433.68641    23.509583     22.16412    1.1943926    434.88081       21.585   -3620.1073 
   23000   -101466.13   -91548.645    240.83312    20724    225986.79   -24.968609   -205.12501    114.50642    15.712765    433.57923    23.512809    22.167161    1.2479837    434.82722    8.8323178   -3636.4891 
   23100   -101573.66   -91465.557    245.46204    20724    226039.98    -81.53696   -112.79224    34.811184   -166.62983    433.84282    23.508431    22.163034    1.1161908    434.95901    22.616268   -3732.5748 
   23200   -101497.35   -91519.267    242.30465    20724     226083.1    153.85421    168.38792    139.02138    154.15334    434.01212    23.506087    22.160824    1.0315409    435.04366    56.969397   -3721.6495 
   23300   -101449.14   -91525.349    240.98634    20724    226096.56   -27.072834   -149.64147   -49.372146    117.79511    433.85984    23.510911    22.165372    1.1076779    434.96752     53.25598   -3704.0465 
   23400   -101575.12   -91513.542    244.33223    20724    226020.58     38.14372    143.38454   -114.62926    85.675879     433.9826    23.503636    22.158514     1.046301     435.0289    59.285239   -3729.0835 
   23500   -101517.85   -91499.694    243.27797    20724    226197.57    63.828659     68.50502   -35.402076    158.38303    434.12046    23.509103    22.163668   0.97737169    435.09783    47.035726   -3729.3161 
   23600    -101490.4   -91519.974     242.1189    20724     226067.6   -20.339998    33.009281    43.013338   -137.04261    434.21579    23.499768    22.154867   0.92970705    435.14549    51.273065   -3715.4412 
   23700   -101541.14    -91509.97    243.59399    20724    226199.39  0.078431086   -237.14398   -184.65752    422.03679    434.30891    23.504097    22.158948   0.88314614    435.19205    44.422368   -3716.3181 
   23800   -101398.52    -91434.35    241.96695    20724    226025.37     4.882889   -86.536247   -57.218854    158.40377    434.22904    23.497214    22.152459    0.9230797    435.15212    6.7028418   -3759.1939 
   23900   -101510.86   -91425.557    244.90845    20724    226294.44   -34.723627   -172.59966   -4.4713375    72.900121    434.42069     23.50601    22.160751   0.82725561    435.24794    6.4302221   -3758.4714 
   24000   -101505.69   -91418.421    244.95611    20724    226265.08   -18.360913    94.592528    38.766999   -188.44227    434.53267    23.501456    22.156458   0.77126669    435.30393    11.512194   -3776.1021 
   24100   -101497.68   -91397.479    245.27031    20724    226292.62   -38.044458   -115.51962   -167.82557    169.21181    434.42009    23.505931    22.160677   0.82755595    435.24764   -6.8105619   -3776.6844 
   24200    -101362.4   -91387.393    242.23014    20724    226073.12   -11.149023    7.8772701   -278.41192    237.08758     434.2861    23.498152    22.153344   0.89454782    435.18065    -8.803706   -3789.3804 
   24300   -101532.81    -91418.01    245.62465    20724    226213.61     9.729037   -29.991449     76.88078    -17.70222    434.27425    23.505773    22.160528   0.90047444    435.17473    13.650179   -3784.3201 
   24400   -101493.32   -91385.028    245.46673    20724    226078.97   -79.322345    18.547147   -63.398543   -193.11564    434.28577    23.498465    22.153639   0.89471261    435.18049    11.498209    -3815.875 
   24500   -101366.63     -91377.9    242.56335    20724    225976.95    28.361489   -21.323353   -87.486092    193.89391    434.23797    23.494456    22.149858   0.91861576    435.15658    13.686799   -3831.2172 
   24600   -101460.36   -91351.664     245.4766    20724    225957.53   -14.803586    113.25516   -191.26071    33.594786    433.92382    23.501949    22.156923    1.0756897    434.99951    22.681868   -3868.9025 
   24700   -101418.09   -91345.168    244.60767    20724    226092.32   -36.916816   -51.548575    165.06221   -224.26408    434.15464    23.502707    22.157638   0.96027812    435.11492    2.7985599   -3851.6259 
   24800    -101455.9   -91381.983     244.6319    20724    226191.71    36.055019   -63.660773    124.57653      47.2493    434.24625    23.505393     22.16017   0.91447371    435.16073    24.589157   -3838.1537 
   24900   -101413.71   -91394.552    243.30223    20724    225983.56    19.399478   -17.116272     113.8095    -38.49479    434.18161    23.496324     22.15162   0.94679689     435.1284    19.262823   -3825.4411 
   25000   -101396.79   -91400.936    242.73622    20724     226091.5    83.308639    52.196029    422.32501   -224.59512    434.04231    23.505706    22.160465    1.0164426    435.05876    19.123379   -3819.1569 
   25100   -101307.88   -91361.328    241.53913    20724    226147.15    33.967421   -23.775785    119.46822    6.2098311    434.13145    23.506185    22.160917   0.97187646    435.10332    17.834325   -3854.2031 
   25200   -101477.86   -91337.994    246.23346    20724     226184.5   -27.068295   -54.849089    106.25833   -132.61413    434.25588    23.504758    22.159571    0.9096594    435.16554   -6.1829795   -3852.1448 
   25300   -101332.55   -91297.363    243.69153    20724    226063.66    24.177218    122.08543    76.275512   -125.82929    434.28488    23.497694    22.152911   0.89515896    435.18004   -25.772847   -3880.2237 
   25400   -101282.23       -91273    243.06109    20724    226089.19    88.066186   -74.618923      132.913    205.90448    434.04176    23.505601    22.160366      1.01672    435.05848    -19.71403   -3912.8835 
   25500   -101287.59   -91263.046    243.43306    20724    226010.59    77.397219   -5.6477467   -108.30052    346.13992    433.94881    23.504031    22.158886    1.0631934    435.01201   -19.505994   -3926.6842 
   25600   -101296.88   -91249.269    243.99324    20724    226002.04    39.485512    40.812217   -227.48368      305.128    433.92541    23.504221    22.159065    1.0748967     435.0003   -26.829921   -3930.6093 
   25700   -101382.91   -91234.222    246.44775    20724    226117.97   -77.964306   -107.35903    86.479563   -213.01345    433.99788    23.508285    22.162897    1.0386618    435.03654   -43.265187   -3923.0695 
   25800   -101416.89   -91262.974     246.5746    20724    225964.51   -89.136943   -61.939585      31.5757   -237.04694    433.95422    23.501489    22.156489      1.06049    435.01471   -9.9705859   -3932.5508 
   25900    -101332.2   -91250.925    244.81054    20724     226013.1       32.848    37.639421    288.69664   -227.79206    434.05449      23.5013    22.156312    1.0103526    435.06485   -34.314585   -3925.9279 
   26000   -101377.27   -91251.844     245.8827    20724    225968.88    6.8646601   -135.55857   -73.077268    229.22982    434.20204    23.495008     22.15038   0.93658001    435.13862   -30.313662   -3930.9727 
   26100   -101268.98   -91226.607    243.86586    20724    226029.49    83.789994    84.483108    6.5993851    160.28749    433.93746    23.505321    22.160102    1.0688677    435.00633   -39.186718   -3949.7579 
   26200   -101295.12   -91197.235    245.21394    20724    226110.42    21.016738   -27.596979   -8.3612569     99.00845    433.91918    23.510024    22.164536    1.0780092    434.99719   -53.871357   -3959.0723 
   26300   -101301.58   -91154.419    246.41048    20724    226223.97    89.626343    117.61168   -13.467459    164.73481    434.37768    23.503512    22.158397   0.84875905    435.22644   -30.801737   -4027.1798 
   26400   -101259.11   -91208.014     244.0778    20724    226165.91    54.308421   -106.52533    232.39456    37.056035    434.17573    23.505961    22.160706   0.94973441    435.12547   -17.929551    -3987.594 
   26500   -101280.97   -91199.746     244.8093    20724    226429.85  -0.99755893    220.21762    6.0929662   -229.30327     434.3023    23.516246    22.170401   0.88645063    435.18875  -0.15842811    -4006.436 
   26600   -101263.74   -91189.863    244.63109    20724    226126.85    11.872227   -135.85966    33.294612    138.18173    434.16449    23.504235    22.159078   0.95535404    435.11985   -12.812004   -4012.8208 
   26700   -101261.48   -91157.796    245.35486    20724    226321.21   -40.874287    17.927185   -40.480619   -100.06943    434.08145    23.516584     22.17072   0.99687672    435.07832   -12.102798   -4038.4726 
   26800   -101290.42   -91129.002    246.75674    20724    226364.13   -30.905144     104.8552    25.364601   -222.93523    434.09074    23.518562    22.172585   0.99223092    435.08297   -12.706557   -4068.5462 
   26900   -101220.89   -91125.396    245.15581    20724    226156.17    37.721352   -27.969255    145.41161   -4.2783037    434.02554    23.509522    22.164062    1.0248317    435.05037   -5.9527885    -4088.498 
   27000   -101264.73   -91163.264    245.30084    20724    226364.97   -32.022633    91.341636    39.856318   -227.26585    434.22928    23.514853    22.169089   0.92296031    435.15224   -23.421574   -4025.9301 
   27100   -101120.38   -91104.758    243.21633    20724    226351.03    83.874163    56.048598   -228.33225    423.90614    433.98223    23.520821    22.174715    1.0464871    435.02871   -29.035351   -4082.4432 
   27200   -101194.25   -91085.528    245.47707    20724    226177.12    7.9729492    86.501648    90.708137   -153.29094    434.02203    23.510706    22.165179    1.0265835    435.04862   -13.652813   -4120.0051 
   27300   -101268.59   -91156.174    245.56691    20724    226234.12   -14.469285   -130.09441   -16.105878    102.79243    434.09847    23.511598     22.16602   0.98836473    435.08684    7.1409373    -4068.755 
   27400   -101265.32   -91104.973     246.7307    20724    226009.09    -18.59851    281.56571   -104.02562   -233.33562     433.9661    23.503485    22.158371    1.0545506    435.02065   -5.0413278   -4115.8818 
   27500   -101163.39    -91147.24    243.22906    20724    226278.96   -41.119147   -195.78387   -235.76086    308.18729    434.15274    23.512458     22.16683   0.96122882    435.11397     28.61328   -4099.9117 
   27600   -101224.79   -91076.084    246.44806    20724    226304.47   -6.1674149    129.40507    -81.51123   -66.396084    434.31564    23.509373    22.163922   0.87978168    435.19542   -7.4731597   -4139.4439 
   27700   -101293.13   -91073.434    248.17201    20724    226316.21   -6.7942316    109.91284   -26.336687   -103.95884     434.2125    23.512775    22.167129   0.93135057    435.14385     22.64627   -4174.6952 
   27800   -101173.79   -91100.128    244.62571    20724    226413.16     92.14165   -4.0921029     225.0561    55.460954    434.24373    23.516965    22.171079   0.91573708    435.15946    18.189453   -4144.7015 
   27900   -101221.59   -91104.231    245.68681    20724    226356.21    -53.35291    73.879094    -204.8488   -29.089025    434.20659    23.515012    22.169239   0.93430462     435.1409     30.11484   -4148.7485 
   28000   -101268.59   -91150.895    245.69513    20724    226219.87    60.314617     105.8546   -153.56747    228.65672    434.02825    23.512759    22.167114     1.023477    435.05172    57.604093   -4140.0921 
   28100   -101297.04   -91101.976    247.57394    20724    226033.78    40.680882    149.84309    157.34634   -185.14678    433.80478    23.509139    22.163702    1.1352114    434.93999    44.227557   -4183.1748 
   28200   -101233.41   -91114.198     245.7318    20724    226025.42    42.899986    30.532786    128.78204   -30.614865    433.76321    23.509831    22.164354    1.1559953     434.9192    38.611215   -4164.7495 
   28300   -101221.18   -91114.044    245.43873    20724    226152.99   -15.597018    89.510599   -50.725085   -85.576568    433.95713    23.511209    22.165653    1.0590336    435.01617     31.14451    -4152.221 
   28400   -101248.02   -91140.619    245.44514    20724    226006.69    1.7932355    -71.43468    226.60802   -149.79364    433.88417    23.505579    22.160345     1.095514    434.97969    28.485408   -4129.3464 
   28500    -101316.2   -91120.197    247.59657    20724    226065.46    58.140451   -31.782149    16.326808    189.87669    433.85896    23.509318    22.163871    1.1081203    434.96708    32.999297   -4157.1428 
   28600   -101126.72     -91067.5    244.27499    20724    226118.32    65.016667    45.959746    57.202775    91.887481    433.76825    23.514525    22.168779    1.1534726    434.92173    24.565247   -4200.6754 
   28700   -101183.86   -91090.463     245.1051    20724    225939.17    94.808238    328.49094    -128.8215    84.755271    433.53393    23.511559    22.165984    1.2706365    434.80456    22.187994   -4183.0035 
   28800   -101195.79   -91094.392    245.29921    20724    226189.88   -1.0745293    30.029457    37.336473   -70.589518    433.84795    23.516085     22.17025    1.1136227    434.96158    37.772213   -4184.0382 
   28900    -101214.2    -91104.66    245.49708    20724    226005.91    30.246642    174.42875   -100.35533    16.666508    433.68223    23.511011    22.165466    1.1964858    434.87871    10.039005   -4155.3089 
   29000   -101188.32   -91032.865     246.6119    20724    225966.74   -76.498534   -246.82959    23.286164   -5.9521801    433.40387    23.516522    22.170662    1.3356666    434.73953   -21.774307   -4190.6633 
   29100   -101174.51   -91070.621    245.35968    20724    226040.79    83.154776    167.35805    55.954654    26.151619    433.57365    23.515769    22.169952     1.250773    434.82443    1.6779533   -4182.5578 
   29200   -101221.32   -91082.578    246.20625    20724    226041.54   -71.318514   -199.17703    161.86238   -176.64089    434.03674    23.503259    22.158159    1.0192293    435.05597     19.20866   -4184.8085 
   29300   -101171.91    -91050.58     245.7832    20724    226002.94    4.5281126   -88.869756    -85.56166    188.01575    433.89667    23.505046    22.159842    1.0892643    434.98594    12.551812   -4214.0674 
   29400   -101136.65   -91027.937    245.47702    20724    226092.63    29.743702    134.66823   -78.599269    33.162147    433.91481    23.509218    22.163776    1.0801961      434.995   -4.1844765   -4217.5875 
   29500   -101146.59   -90969.615    247.13466    20724    226109.32    3.5899355   -83.912258    51.643549    43.038515    433.85569    23.511687    22.166104    1.1097525    434.96545   -3.4735372   -4276.6179 
   29600    -101162.8   -91006.011    246.64439    20724       225996   -50.634289    132.23993   -338.88354    54.740742    433.90579    23.504438     22.15927    1.0847064    434.99049     7.236422    -4253.266 
   29700   -101083.71   -90998.868    244.89715    20724    225927.05    59.172674    110.42459   -251.49194    318.58538    433.67022    23.507234    22.161906    1.2024914    434.87271  -0.68513979   -4261.2135 
   29800   -101196.04   -91010.574    247.34072    20724    226026.89   -59.832119   -52.338767    96.306088   -223.46368    433.96596    23.504415    22.159248    1.0546182    435.02058    9.4656298    -4252.687 
   29900    -101146.2   -90966.685    247.19617    20724    225857.37   -23.657153   -102.61206    69.573438   -37.932836    433.76003    23.501175    22.156194    1.1575833    434.91762    15.064942    -4310.399 
   30000      -101070   -90907.009    246.79495    20724    225904.56    8.6697751   -24.337076    177.44967   -127.10326    433.68655    23.505621    22.160385    1.1943237    434.88088   -13.568489   -4342.8589 
   30100    -101071.2   -90920.438     246.4981    20724    225875.83   -25.045164    35.317418   -218.50944    108.05653    434.09698    23.493013    22.148498   0.98910837    435.08609   -15.737684   -4326.7885 
   30200   -101139.85   -90853.181    249.79827    20724    225979.02   -99.686382   -177.41457   -171.87381    50.229236    433.76989    23.507236    22.161908    1.1526554    434.92254   -18.055955   -4386.9724 
   30300   -101104.94   -90852.488    248.96741    20724    225930.48    120.51091    174.41091    19.563276    167.55853    433.76232    23.504917    22.159721    1.1564397    434.91876   -32.652194   -4386.9092 
   30400   -101177.52   -90860.619    250.53247    20724    226241.74   -133.90411   -92.518332   -153.40545   -155.78855    433.92265    23.516757    22.170883    1.0762762    434.99892   -28.638816    -4362.047 
   30500   -101076.29   -90885.851    247.46154    20724    225982.82   -20.327522   -6.2315077   -403.90566     349.1546    433.68389    23.509765    22.164292    1.1956553    434.87954   -18.199955   -4363.3176 
   30600   -101121.96   -90855.127    249.31661    20724     226090.2   -50.716346    26.378669   -181.79415    3.2664445    434.05903    23.505186    22.159974    1.0080869    435.06711   -15.966094   -4392.0752 
   30700   -101130.22   -90897.092    248.49828    20724     226184.1    40.870083   -53.108829    152.33025    23.388825    434.05482     23.51018    22.164683    1.0101912    435.06501    -13.33349   -4355.9914 
   30800   -101021.87    -90826.15    247.58987    20724    226403.31   -5.9027805    125.98267    51.649452   -195.34046    434.29638    23.515028    22.169253   0.88940948    435.18579   -14.548676   -4416.3138 
   30900   -100913.55   -90850.178    244.37584    20724    226096.37    58.481629    50.144329   -38.177214    163.47777    433.75502    23.513742    22.168041    1.1600897    434.91511   -27.650465   -4392.3669 
   31000   -101116.68   -90859.618    249.07932    20724    226218.18   -76.588819    27.106832   -238.07883   -18.794454    433.94872    23.514825    22.169062    1.0632381    435.01196   -14.322798   -4388.9579 
   31100    -101018.9   -90834.053    247.32573    20724    226019.46   -32.510165    135.55873   -407.26597    174.17675    433.94965     23.50447      22.1593    1.0627772    435.01242   -36.772425   -4400.8552 
   31200   -100989.38   -90788.576    247.71324    20724    225816.28    -9.495784   -112.20767   -42.109149    125.82947    433.86658    23.496152    22.151458    1.1043081    434.97089   -38.924585   -4452.1342 
   31300   -101039.32   -90859.096    247.21352    20724    225831.03    64.134944    21.320177   -30.429378    201.51403    433.91924    23.495493    22.150837    1.0779808    434.99722   -38.045786    -4389.113 
   31400   -101176.22   -90846.173    250.85177    20724       225988   -61.875752   -92.350304    282.03744   -375.31439    433.96763    23.502347    22.157299    1.0537859    435.02141   -38.331794   -4394.3262 
   31500   -101039.64   -90863.423    247.11625    20724     225904.2    79.757393   -1.0432967    67.175295    173.14018    433.89522     23.49995    22.155038    1.0899913    434.98521   -26.096175   -4397.8393 
   31600   -101007.56   -90858.766    246.45027    20724    226196.68      81.3381    12.718016    57.609606    173.68668    433.88998    23.515299    22.169509    1.0926087    434.98259   -31.183873   -4389.8754 
   31700   -100976.25   -90891.414    244.89698    20724    226023.52   -2.6505677    1.9257213    144.22551   -154.10293    434.05246    23.501897    22.156874    1.0113723    435.06383   -15.085101   -4373.9146 
   31800   -101044.82   -90869.661    247.09052    20724    226347.57     130.8084    210.33362    23.701215    158.39037    434.37087    23.510117    22.164623   0.85216623    435.22303    -19.48342   -4391.8716 
   31900   -100910.25   -90819.386    245.04358    20724    226049.12    -36.24231   -131.78112   -72.253106    95.307296    433.97046    23.505448    22.160222    1.0523714    435.02283   -60.803479   -4400.3847 
   32000   -100963.75    -90831.72    246.04305    20724    225891.73    30.673851    10.135296    106.16527   -24.279013    433.82278    23.501263    22.156277    1.1262124    434.94899   -41.395018   -4415.3012 
   32100   -101096.05   -90800.869    250.00499    20724    226147.96   -64.528487   -85.287341    99.197474   -207.49559    434.15214    23.505667    22.160428   0.96153013    435.11367   -39.982571   -4438.9935 
   32200    -101036.5    -90777.06    249.13721    20724    226177.98   -98.082788   -69.457484    199.93704   -424.72792    434.05307    23.509909    22.164428    1.0110657    435.06413   -36.131221    -4464.635 
   32300   -101066.69     -90791.6     249.5173    20724    226020.82    -15.54033   -259.63522   -177.59849    390.61272    433.85369     23.50714    22.161817    1.1107547    434.96445   -25.371039   -4471.5735 
   32400   -101085.13   -90821.232    249.24542    20724    225964.15   0.77333126    131.23701    -305.1476    176.23058    433.86904    23.503777    22.158646    1.1030781    434.97212   -15.147411   -4457.6754 
   32500   -101092.62   -90853.232    248.65019    20724    225966.45   -4.6942335   -127.14394     51.73403     61.32721    433.83796    23.504738    22.159553    1.1186214    434.95658   -18.416427   -4422.7635 
   32600   -101051.89   -90738.646     250.4438    20724    225883.91    -61.02255   -79.767207    55.508203   -158.80865    433.76368    23.502457    22.157402    1.1557624    434.91944   -32.110817   -4522.7141 
   32700   -100987.77    -90718.38    249.37866    20724    225982.22   -17.499187   -160.67587    62.959881    45.218428    433.53105    23.513877    22.168169    1.2720745    434.80313   -31.033021   -4545.4925 
   32800   -100942.97   -90693.118    248.90427    20724    225969.41   -16.477165   -63.317683     -78.4196    92.305787    433.61157    23.511028    22.165482    1.2318131    434.84339   -50.502948   -4550.2798 
   32900   -100834.91   -90715.743     245.7308    20724    226208.29    69.769952    150.36733   -137.87284    196.81537    433.90179    23.515583    22.169777    1.0867069    434.98849    -37.71204   -4538.3538 
   33000   -100956.25    -90699.82    249.06414    20724    225917.74   -51.025595   -156.70829    244.98125   -241.34974    433.79369    23.503404    22.158295    1.1407536    434.93445   -38.300478   -4558.7458 
   33100   -100932.84   -90677.717    249.03232    20724    226100.52    49.077322    75.549553      277.473   -205.79058    434.10428    23.504497    22.159325   0.98546141    435.08974   -34.269989   -4584.9795 
   33200   -100873.06   -90603.241    249.38911    20724    226089.73    26.072694    148.48126   -43.166888   -27.096292    434.10842    23.503824    22.158691   0.98339161    435.09181    -55.11175   -4638.8338 
   33300   -100858.23   -90608.036    248.91273    20724       225908    15.491412   -23.248445    126.89449   -57.171814    433.80907    23.502481    22.157424    1.1330675    434.94213   -28.108911   -4667.3473 
   33400   -100822.75   -90613.635    247.91509    20724    226004.98    65.358684    181.00342    33.169633   -18.097005    434.21224    23.496609    22.151889   0.93147904    435.14372    -56.53691   -4633.4851 
   33500    -100865.4   -90618.077    248.84288    20724     226099.9   -58.949658    -39.18337    75.288594    -212.9542    433.96455    23.508248    22.162862    1.0553249    435.01988   -43.163181   -4635.5018 
[...]
  491800   -95784.574   -84198.415    281.35479    20724    221351.99    8.8691177   -6.7534541    174.20026   -140.83945    424.15497    23.527547    22.181056    5.9601129    430.11509    5571.5749   -23882.967 
  491900   -95800.984   -84245.755    280.60368    20724    221605.96    34.297291    212.63747    26.232714   -135.97831    424.68651    23.526303    22.179884     5.694343    430.38086    5591.3673   -23850.375 
  492000   -95720.885    -84224.75    279.16866    20724    221285.08    105.02689   -112.08735    91.062616     336.1054    424.58488    23.512078    22.166473     5.745159    430.33004    5575.6995   -23871.673 
  492100   -95831.835   -84273.336     280.6831    20724     221565.8   -11.372202    241.73338   -97.240301   -178.60969    424.20364    23.537557    22.190493    5.9357822    430.13942    5586.5163   -23822.893 
  492200   -95863.333   -84210.579    282.97194    20724    221530.08    68.736826   -12.495509    237.36894   -18.662959    423.91682     23.54362    22.196209    6.0791875    429.99601    5588.6822   -23893.581 
  492300   -95861.244   -84241.442    282.17176    20724    221439.19   -12.119627    25.162057   -64.770509    3.2495715    423.62831    23.546804    22.199211    6.2234446    429.85176     5590.712   -23866.766 
  492400   -95953.658   -84249.879    284.21101    20724    221408.55   -43.643761   -213.67369    196.02552   -113.28311     423.4024    23.551455    22.203596     6.336399     429.7388    5617.0448   -23887.506 
  492500   -95868.531   -84319.655     280.4494    20724    221332.32   -47.845908   -101.61848    53.656081   -95.575323    423.44963    23.546088    22.198536    6.3127846    429.76242    5627.4612    -23830.97 
  492600   -96024.131   -84298.181    284.74941    20724    221227.51    15.163121    182.87094     89.67536   -227.05694    423.28577    23.545068    22.197574    6.3947165    429.68048    5620.1729   -23856.604 
  492700   -95944.212    -84269.39    283.50785    20724    221240.04   -71.296889   -202.63476   -1.7826278   -9.4732807    423.88072    23.529205    22.182619    6.0972421    429.97796     5624.672   -23884.217 
  492800   -95895.574   -84244.881     282.9219    20724    221595.35    2.5108637    -152.2991    42.060351    117.77134    424.12018    23.541442    22.194156    5.9775123    430.09769    5614.2833   -23889.887 
  492900   -95829.128   -84318.749    279.51454    20724    221161.13   -16.995328   -48.574925    24.308147   -26.719207    423.60257     23.53273    22.185943    6.2363148    429.83889    5615.0619   -23831.209 
  493000   -95991.264   -84310.548    283.65097    20724    221134.64     94.64707    77.465162    267.57196   -61.095913    423.59142    23.531631    22.184906    6.2418922    429.83331    5618.4807   -23853.129 
  493100   -96025.527   -84370.164     283.0353    20724     220887.3   -31.581882   -131.67292    140.13183   -103.20456    423.51733    23.520524    22.174435    6.2789368    429.79626    5632.9481   -23811.556 
  493200   -95889.854   -84296.608    281.52685    20724    221010.52    102.55481    215.66165    215.06905   -123.06626    423.58443     23.52522    22.178862    6.2453836    429.82982    5607.1542   -23862.969 
  493300   -95832.515   -84270.098    280.77825    20724    221061.87    10.930403   -21.326322    76.507216   -22.389686    423.33924    23.534765    22.187861    6.3679797    429.70722     5590.888   -23868.217 
  493400   -95818.312   -84276.651    280.27421    20724     221201.6    19.035649    137.88342    -179.6002    98.823736    423.52923    23.536921    22.189894    6.2729836    429.80222     5609.347   -23877.499 
  493500   -95876.909   -84323.804     280.5521    20724    221079.69  -0.21602102    8.1479403    335.59821   -344.39421    424.03954    23.516271    22.170425    6.0178313    430.05737    5621.9964   -23845.709 
  493600   -95831.441   -84315.941     279.6389    20724    220838.54   -22.027308   -180.92189    31.486606    83.353358    423.47459    23.519115    22.173106    6.3003058    429.77489     5616.512    -23859.12 
  493700   -95849.293   -84326.065    279.82659    20724    220751.67   -9.4277191   -225.92034    272.34641   -74.709229    423.21695    23.521645    22.175492    6.4291246    429.64608    5631.1246   -23868.025 
  493800   -95921.483   -84301.701    282.17126    20724    220747.86   -44.115865    154.10593    48.970501   -335.42402    422.84577    23.531763    22.185031    6.6147145    429.46049    5627.2502   -23890.321 
  493900    -95786.54   -84274.158     279.5632    20724    220863.97    133.94436    -2.210879    152.01042    252.03356    422.90908    23.536189    22.189204    6.5830588    429.49214    5635.7727   -23932.002 
  494000    -95852.95   -84268.564    281.31172    20724    220927.74   -26.715855   -89.382081    -58.48719    67.721705    423.15527    23.532738     22.18595    6.4599664    429.61523    5594.2821   -23886.772 
  494100   -95810.793   -84258.124    280.54152    20724    220901.09    74.887831    300.06696    -19.97112   -55.432343    423.27807    23.527905    22.181394    6.3985645    429.67664    5595.7058    -23906.89 
  494200   -95857.419   -84317.263    280.23766    20724    221118.05    21.081674    73.591476    31.739338   -42.085793     423.4824    23.533777     22.18693    6.2964014     429.7788    5606.2621   -23850.972 
  494300   -95935.423   -84303.319    282.47048    20724     221223.6   -34.322014   -44.815591    113.86611   -172.01657    423.92932    23.526982    22.180523    6.0729382    430.00226     5607.741   -23861.019 
  494400   -95832.272   -84293.459    280.20503    20724    221147.94    52.106195    104.36182    13.760233    38.196537    423.53145    23.534004    22.187144    6.2718752    429.80332    5620.0301   -23890.213 
  494500     -95852.2   -84306.405    280.37458    20724    221436.87      67.2269    52.034699    126.43023    23.215776    423.91976    23.538585    22.191462    6.0777185    429.99748    5629.6139   -23879.379 
  494600     -95848.7   -84307.319    280.26741    20724    220918.95   -34.733669   -38.131739   -241.27633    175.20706    423.85653    23.512795    22.167149    6.1093345    429.96587    5618.7864   -23883.282 
  494700   -95937.536   -84327.729    281.92904    20724    221181.77    82.521795    21.102305    269.80745   -43.344368    423.70415    23.531008    22.184319    6.1855271    429.88967    5616.8042   -23860.418 
  494800   -95862.698   -84315.352    280.41226    20724     221493.3     81.16952   -153.06915     222.4151    174.16261    423.88517    23.542545    22.195195    6.0950141    429.98019    5635.5616   -23882.756 
  494900   -96000.369   -84285.565    284.47876    20724    221470.84   -57.952234    33.802456   -217.94693     10.28777    424.11723     23.53491    22.187997    5.9789862    430.09621    5627.4544   -23899.364 
  495000   -95888.512   -84292.291    281.59913    20724    221373.32   -63.867704   -139.43013   -245.60409    193.43111    424.00437    23.532859    22.186064     6.035413    430.03979     5622.803   -23892.266 
  495100    -95890.83       -84321    280.95824    20724    221449.24   -3.4346267    42.029041    297.76855   -350.10148    424.07923    23.534816    22.187909    5.9979827    430.07722    5640.0924   -23882.594 
  495200   -95900.599   -84303.938    281.60981    20724     220934.8   -14.007055     168.7631   -63.286635   -147.49763    423.93092    23.511576    22.165999    6.0721387    430.00306    5609.3611    -23887.26 
  495300   -95863.775   -84299.862    280.81456    20724    221437.92   -40.991185   -52.171264   -110.37522    39.572932    424.03065    23.535562    22.188613    6.0222728    430.05293    5631.3797   -23897.028 
  495400   -95922.454   -84300.463    282.22491    20724    221138.43   -42.073863   -29.074403   -31.577548   -65.569637    423.37245    23.537917    22.190833    6.3513743    429.72383     5630.044   -23907.054 
  495500   -95818.048   -84274.682    280.31562    20724    221140.41    128.27707    277.07593    84.658486    23.096784    423.49975    23.534485    22.187597    6.2877275    429.78747    5626.6327   -23938.083 
  495600   -95953.052   -84302.322     282.9228    20724    221235.94   -33.780965    23.359441   -176.32099    51.618654    423.36678    23.543264    22.195873    6.3542087    429.72099    5622.7063    -23896.36 
  495700   -96090.543   -84310.068    286.07349    20724     221277.3    36.096221    170.74399     16.19192    -78.64725     423.7202    23.535643    22.188688    6.1774992     429.8977    5629.1899   -23901.864 
  495800   -95827.295   -84249.124     281.1608    20724     221348.6   -12.753329    77.101513   -37.106553   -78.254948     423.8186    23.536702    22.189687    6.1283012     429.9469    5609.9803   -23935.751 
  495900   -95863.625   -84273.572    281.44933    20724    221533.82    1.1540758   -121.38962    5.0270496     119.8248    424.27693    23.533825    22.186975    5.8991352    430.17606    5621.6619   -23919.784 
  496000   -95800.148   -84190.016    281.93692    20724     221086.2    80.261049    107.70188    107.53365    25.547615    423.94061    23.519362    22.173339    6.0672958     430.0079      5626.46   -24028.166 
  496100   -95843.234   -84157.417    283.77484    20724    221561.54    19.559659   -194.84007    114.41073    139.10831      424.054    23.541483    22.194194    6.0105988     430.0646    5615.1315   -24031.433 
  496200   -95750.664   -84213.607     280.1624    20724    221255.15    93.393628    110.11193    17.865989    152.20297    423.91244    23.529128    22.182546    6.0813783    429.99382    5614.5139    -23990.25 
  496300   -95884.297   -84198.729    283.76879    20724    221657.88   -46.846889    -52.38344    112.04581   -200.20303    424.33973    23.538672    22.191545    5.8677373    430.20746    5617.4257   -23991.446 
  496400   -95817.276   -84218.773    281.65455    20724    221268.52    53.070802    235.76356   -141.12755      64.5764     423.7101    23.535456    22.188512    6.1825479    429.89265    5616.6516   -23988.376 
  496500   -95874.512   -84236.891    282.60448    20724    221680.26   -48.292532   -160.34525    232.76517   -217.29752     424.3404    23.539842    22.192647    5.8673982     430.2078    5626.4241   -23963.321 
  496600   -95882.516   -84241.851    282.67838    20724    221630.41     42.74699    146.26904    171.83055   -189.85862    424.38632    23.535921    22.188951    5.8444421    430.23076    5622.5674    -23963.61 
  496700   -96017.353   -84230.308    286.23302    20724     221517.7   -188.59569   -61.021315   -103.02395   -401.74179    424.37572     23.53023    22.183585    5.8497395    430.22546    5625.1519   -23972.765 
  496800   -95982.778   -84246.295    285.00521    20724       221279   -67.772281   -200.07044   -378.29313    375.04673    423.96539    23.528926    22.182356    6.0549026     430.0203    5632.3059    -23979.35 
  496900   -95800.889    -84249.58    280.50848    20724    221398.64   -44.664388   -50.564889    54.288223    -137.7165    424.10444    23.531428    22.184715    5.9853797    430.08982    5636.7317   -23976.898 
  497000   -95759.485   -84209.401    280.47873    20724    221528.48    76.597595   -130.97059    108.82644    251.93694    423.92806    23.543223    22.195835    6.0735678    430.00163    5615.5936   -23996.969 
  497100   -95797.182   -84254.164    280.30714    20724       221292    41.481425    56.767377    51.378164    16.298734    423.47496    23.543239     22.19585    6.3001176    429.77508    5630.6123   -23977.504 
  497200   -95817.329   -84230.401    281.37344    20724    221622.86    67.215796    180.00615   -100.63385     122.2751    423.89859    23.549056    22.201334    6.0883068    429.98689    5630.2819   -23991.015 
  497300   -95774.269   -84220.498    280.56829    20724    221491.16   -54.857372   -221.93341   -28.790274    86.151564    424.19269    23.533895    22.187041    5.9412547    430.13395    5619.1445   -23989.228 
  497400   -95868.789   -84206.545    283.20241    20724    221728.17    68.655146      122.722   -9.1597503    92.403184    424.71452    23.532014    22.185267    5.6803391    430.39486    5621.8322   -24005.655 
  497500   -95699.563   -84169.782    279.98571    20724    221535.76    34.566159     -14.7791    186.46251   -67.984931     424.7304    23.521362    22.175225     5.672402     430.4028    5604.1632   -24030.895 
  497600   -95789.455   -84183.296    281.84046    20724    221332.36   -4.4700191    225.89365   -173.04815   -66.255561    424.50061    23.516924    22.171041    5.7872937    430.28791    5603.4313   -24023.253 
  497700   -95845.976   -84200.549      282.794    20724    221712.92    24.238877    104.83564   -144.43154    112.31253    424.74108    23.530469    22.183811    5.6670615    430.40814    5593.3038   -23988.002 
  497800   -95847.167   -84223.846    282.25721    20724    221530.87    98.608741    366.81059    5.1729956   -76.157365    425.04806    23.512311    22.166692    5.5135717    430.56163    5600.7988   -23985.058 
  497900   -95863.822   -84200.926    283.21824    20724    221762.39   -29.991893    -77.00072    181.48962   -194.46458    425.08292     23.52363    22.177363    5.4961422    430.57906    5619.1927    -24012.59 
  498000    -95927.56   -84220.324    284.29499    20724    221624.83   -59.504487    81.980531    45.501743   -305.99574    424.72833    23.526147    22.179736    5.6734368    430.40176     5632.393   -24010.383 
  498100   -95870.937   -84202.653    283.34907    20724    221802.75    132.91051   -12.437362     33.09973    378.06915    424.96072    23.529153     22.18257     5.557239    430.51796    5619.8869   -24021.201 
  498200   -95742.475   -84169.802    281.02728    20724    221542.08    20.974696    211.53535    -83.36134   -65.249919    424.99612    23.514343    22.168607    5.5395376    430.53566    5645.4753   -24083.291 
  498300   -95736.781   -84189.157    280.41899    20724    221372.03   -32.984843    8.4905685    -138.2045    30.759405    425.20742    23.499476    22.154591    5.4338909    430.64131    5654.9275   -24078.159 
  498400   -95838.114   -84158.607    283.62161    20724    221499.54   -31.782738   -154.05502    181.25725   -122.55044    424.96505    23.512945    22.167289    5.5550728    430.52013    5643.5636   -24096.011 
  498500   -95839.455   -84180.383    283.12538    20724    221825.77   -58.083429   -55.716651    135.32057   -253.85421    424.98233    23.529775    22.183156    5.5464329    430.52877    5634.6843    -24052.69 
  498600    -95812.28   -84166.137    282.81143    20724     221747.2    -12.82496    28.924412   -35.708734   -31.690559    424.88772    23.528227    22.181697    5.5937408    430.48146    5649.4365   -24088.379 
  498700   -95728.006   -84141.173    281.37116    20724     221957.5   -50.244519    243.57487   -244.10911   -150.19932    424.74249    23.543405    22.196007    5.6663547    430.40885    5646.1204   -24100.753 
  498800   -95808.595   -84178.508    282.42152    20724     221553.3    15.220688   -152.50876    142.05946     56.11136    424.50173    23.528627    22.182074    5.7867328    430.28847    5647.2862   -24085.395 
  498900   -95792.444   -84205.881    281.36461    20724    221622.99   -29.654184    16.094806    48.236731   -153.29409    424.89692    23.521381    22.175243    5.5891389    430.48606      5655.59   -24065.249 
  499000   -95742.275   -84145.856    281.60394    20724    221515.83   -73.695277   -201.36955   -70.085512    50.369231    425.02977    23.512019    22.166417    5.5227135    430.55249    5641.4037    -24113.87 
  499100   -95825.252    -84180.52    282.77715    20724    221679.96   -69.685237   -230.61241   -99.067477    120.62417    424.79126     23.52733    22.180851     5.641968    430.43323     5654.327    -24087.87 
  499200   -95811.668   -84203.389    281.89192    20724    221511.18   -16.204787    39.637847   -243.36627    155.11406    424.63621    23.522665    22.176454    5.7194956     430.3557    5645.6538    -24066.97 
  499300   -95938.178   -84215.289    284.67508    20724    221475.77    -68.19267   -78.656752    291.77617   -417.69743    424.57845    23.522385    22.176189    5.7483739    430.32683    5645.7907   -24056.971 
  499400   -95844.117   -84241.447    281.75571    20724    221542.07     88.81696    321.68549     34.06478   -89.299394    424.68392    23.522984    22.176754    5.6956397    430.37956    5652.7549   -24040.459 
  499500   -95753.432    -84278.01    278.66568    20724    221476.67     82.66449    249.57201    200.73927   -202.31781    425.11772    23.507508    22.162164    5.4787401    430.59646    5658.1965   -24015.345 
  499600   -95826.007   -84278.976     280.4046    20724     221268.8   -4.2346501    24.413259   -185.88884    148.77163    424.93509    23.501523    22.156521    5.5700525    430.50515    5674.9975   -24035.201 
  499700   -96007.777    -84261.66    285.23915    20724     221439.9    -90.57088    -232.0892   -53.333718     13.71028    424.76106    23.515423    22.169626    5.6570677    430.41813    5675.0293   -24045.228 
  499800   -95683.865   -84271.361    277.13778    20724    221228.15    69.897486    233.05544    75.032874   -98.395853    424.81376     23.50272     22.15765    5.6307212    430.44448    5656.3953   -24029.715 
  499900   -95868.096   -84244.594     282.2616    20724    221413.53   -179.14113   -253.68998     -260.745   -22.988427    425.11954    23.504107    22.158958    5.4778309    430.59737    5679.7715   -24066.423 
  500000   -95802.455   -84259.294    280.31063    20724    221301.61    133.65117   -44.931024     347.4382    98.446333    424.86677    23.505155    22.159946    5.6042167    430.47098    5689.8114   -24082.256 
Loop time of 53600 on 32 procs for 500000 steps with 20724 atoms

Performance: 1.612 ns/day, 14.889 hours/ns, 9.328 timesteps/s
96.6% CPU use with 32 MPI tasks x no OpenMP threads

MPI task timing breakdown:
Section |  min time  |  avg time  |  max time  |%varavg| %total
---------------------------------------------------------------
Pair    | 6463.5     | 10404      | 13393      |2294.3 | 19.41
Bond    | 0.47014    | 0.61707    | 0.72839    |   7.7 |  0.00
Kspace  | 9024.9     | 12023      | 15982      |2144.0 | 22.43
Neigh   | 8256.2     | 9940.8     | 11619      |1376.5 | 18.55
Comm    | 376.9      | 2694.4     | 8690.6     |5363.9 |  5.03
Output  | 5.8226     | 34.71      | 74.376     | 399.3 |  0.06
Modify  | 13515      | 18460      | 22053      |2154.2 | 34.44
Other   |            | 43.31      |            |       |  0.08

Nlocal:    647.625 ave 694 max 599 min
Histogram: 1 2 1 9 8 1 0 3 2 5
Nghost:    7310.06 ave 7834 max 6892 min
Histogram: 2 4 10 3 2 1 0 2 5 3
Neighs:    238057 ave 271440 max 216167 min
Histogram: 4 3 13 1 0 2 1 3 1 4
FullNghs:  476108 ave 542928 max 427587 min
Histogram: 2 2 14 3 0 2 1 3 2 3

Total # of neighbors = 15235468
Ave neighs/atom = 735.161
Ave special neighs/atom = 2
Neighbor list builds = 500000
Dangerous builds not checked
write_data production.R1
PPPM initialization ...
  extracting TIP4P info from pair style
WARNING: Using 12-bit tables for long-range coulomb (../kspace.cpp:316)
  G vector (1/distance) = 0.345862
  grid = 400 48 48
  stencil order = 5
  estimated absolute RMS force accuracy = 0.000403022
  estimated relative force accuracy = 1.21369e-06
  using double precision FFTs
  3d grid and FFT values/proc = 67260 38400
write_restart restartproduction.R1
PPPM initialization ...
  extracting TIP4P info from pair style
WARNING: Using 12-bit tables for long-range coulomb (../kspace.cpp:316)
  G vector (1/distance) = 0.345862
  grid = 400 48 48
  stencil order = 5
  estimated absolute RMS force accuracy = 0.000403022
  estimated relative force accuracy = 1.21369e-06
  using double precision FFTs
  3d grid and FFT values/proc = 67260 38400
Total wall time: 14:53:20
