LAMMPS (30 Jul 2016)
# Sets up LAMMPS simulation for transient melting of ice: TIP4P/Ice
# Ensure cold thermostats do not move
# Thinbox: 16x1x1
# Defects
# Order param l=2

#### setting MD parameters ####
units real
boundary p p p
atom_style full

# read ice box in restart file
#read_data ice-ih-restart.data
read_restart restart.state
  orthogonal box = (0.505423 0.0272733 0.0257124) to (435.57 23.5039 22.1588)
  32 by 1 by 1 MPI processor grid
  20736 atoms
  13824 bonds
  6912 angles
  2 = max # of 1-2 neighbors
  1 = max # of 1-3 neighbors
  1 = max # of 1-4 neighbors
  2 = max # of special neighbors

#replicate 16 boxes, 16x1x1


#### force field definition ####
pair_style      lj/cut/tip4p/long 2 1 1 1 0.1577 10.0
pair_modify	tail yes

kspace_style	pppm/tip4p 1.0e-6

bond_style	harmonic
angle_style	harmonic
dihedral_style	none
improper_style	none

bond_coeff	1 450.0 0.9572
angle_coeff	1 55.0 104.52


# reset pair coeff
pair_coeff	* * 0.0 0.0

#OO
pair_coeff	2 2 0.21085 3.1668
#OH
pair_coeff	* 1 0.0000 0.0000

neighbor        2.0 bin
neigh_modify    every 1 delay 1 check no

timestep	2.0
fix		constraints all shake 0.000001 20 0 b 1 a 1
  0 = # of size 2 clusters
  0 = # of size 3 clusters
  0 = # of size 4 clusters
  6912 = # of frozen angles

group water type 1 2
20736 atoms in group water

#*********** SIMULATION PARAMETER TO ADJUST ****************
#Box dimensions
variable lx equal lx
variable ly equal ly
variable lz equal lz

### Temperature of the hot and cold regions ####
variable thi equal 375
variable tlo equal 215
variable runpressure equal 0.986923
# Configuration equilibrated in density and temperature

# Define dx here

variable lx equal lx
variable ly equal ly
variable lz equal lz

variable xlo equal xlo
variable xhi equal xhi


variable dx equal 2.0

### ADD IN DEFECTS AT THE CENTRE OF THE HOT THERMOSTAT ###
variable x1 equal ${lx}/4.0
variable x1 equal 435.064353768933/4.0
variable y1 equal ${ly}/2.0
variable y1 equal 23.4766533877823/2.0
variable z1 equal ${lz}/2.0
variable z1 equal 22.1330751122447/2.0

region kill1 sphere ${x1} ${y1} ${z1} 3
region kill1 sphere 108.766088442233 ${y1} ${z1} 3
region kill1 sphere 108.766088442233 11.7383266938911 ${z1} 3
region kill1 sphere 108.766088442233 11.7383266938911 11.0665375561224 3
delete_atoms region kill1 compress no bond yes mol yes
Deleted 15 atoms, new total = 20721
Deleted 10 bonds, new total = 13814
Deleted 5 angles, new total = 6907




variable thip equal ${thi}*2.0/3.0
variable thip equal 375*2.0/3.0
variable tlop equal ${tlo}*2.0/3.0
variable tlop equal 215*2.0/3.0
variable cbl equal ${lx}*3.0/4.0-${dx}
variable cbl equal 435.064353768933*3.0/4.0-${dx}
variable cbl equal 435.064353768933*3.0/4.0-2
variable cbh equal ${lx}*3.0/4.0+${dx}
variable cbh equal 435.064353768933*3.0/4.0+${dx}
variable cbh equal 435.064353768933*3.0/4.0+2
variable hbl equal ${lx}*1.0/4.0-${dx}
variable hbl equal 435.064353768933*1.0/4.0-${dx}
variable hbl equal 435.064353768933*1.0/4.0-2
variable hbh equal ${lx}*1.0/4.0+${dx}
variable hbh equal 435.064353768933*1.0/4.0+${dx}
variable hbh equal 435.064353768933*1.0/4.0+2


#***************************************************
## EQUILIBRATION PERIOD - to reach the steady state ###
#run 0

#reset the timestep to start your production run
reset_timestep 0

# define a group to perform averages
#group s1 type 1
###*** SYSTEM THERMOSTATTING: HOT and COLD regions ***###

fix NVE all nve
fix PRESS all press/berendsen aniso ${runpressure} ${runpressure} 500000 couple yz
fix PRESS all press/berendsen aniso 0.986923 ${runpressure} 500000 couple yz
fix PRESS all press/berendsen aniso 0.986923 0.986923 500000 couple yz


### Apply THERMOSTATS ###

#set up the "hot region" in the middle of the box
region hot block ${hbl} ${hbh} 0 ${ly} 0 ${lz} units box
region hot block 106.766088442233 ${hbh} 0 ${ly} 0 ${lz} units box
region hot block 106.766088442233 110.766088442233 0 ${ly} 0 ${lz} units box
region hot block 106.766088442233 110.766088442233 0 23.4766533877823 0 ${lz} units box
region hot block 106.766088442233 110.766088442233 0 23.4766533877823 0 22.1330751122447 units box


#set up the "cold region" at the left end of the box
region cold block ${cbl} ${cbh} 0 ${ly} 0 ${lz} units box
region cold block 324.2982653267 ${cbh} 0 ${ly} 0 ${lz} units box
region cold block 324.2982653267 328.2982653267 0 ${ly} 0 ${lz} units box
region cold block 324.2982653267 328.2982653267 0 23.4766533877823 0 ${lz} units box
region cold block 324.2982653267 328.2982653267 0 23.4766533877823 0 22.1330751122447 units box

#set up the "cold region" at the right end of the box
#region cold2 block ${h2bl} ${xhi} 0 ${ly} 0 ${lz} units box


#Cold regions  unification
#region cold union 2 cold1 cold2 units box

#Create group of cold molecules
####group cool_ice region cold
####group cool_ice include molecule

####compute cold_temp cool_ice temp
####fix cold_rescale water temp/rescale 1 ${tlo} ${tlo} 0.0001 1.0
####fix_modify cold_rescale temp cold_temp

#this calculates the temperature using only the atoms in the "hot region"
#compute hot_temp all temp/region hot

# calculate the temperature using only WATER in the "hot region"
compute hot_temp water temp/region hot

#this calculates the temperature using only WATER in the "cold region"
compute cold_temp water temp/region cold


#set up a basic velocity rescale for the hot region WATER with thip
fix hot_rescale water temp/rescale 1 ${thip} ${thip} 1.0 1.0
fix hot_rescale water temp/rescale 1 250 ${thip} 1.0 1.0
fix hot_rescale water temp/rescale 1 250 250 1.0 1.0
#change the thermostat to only act on the "hot region"
#this is done by passing it the "hot temp" compute that we defined above
fix_modify hot_rescale temp hot_temp

#set up a basic velocity rescale for the cold region
fix cold_rescale water temp/rescale 1 ${tlop} ${tlop} 1.0 1.0
fix cold_rescale water temp/rescale 1 143.333333333333 ${tlop} 1.0 1.0
fix cold_rescale water temp/rescale 1 143.333333333333 143.333333333333 1.0 1.0
#change the thermostat to only act on the "cold region"
#this is done by passing it the "cold temp" compute that we defined above
fix_modify cold_rescale temp cold_temp

### Ensure MOMENTUM CONSERVATION ###

#ensure that linear momentum is conserved despite the "thermostatting" by velocity rescaling
fix cons_mom all momentum 1 linear 1 1 1


thermo 100
thermo_style custom step pe etotal temp atoms vol press pxx pyy pzz lx ly lz xlo xhi f_cold_rescale f_hot_rescale

group ox type 2
6907 atoms in group ox
group hy type 1
13814 atoms in group hy
compute KE all ke/atom
variable TEMP atom c_KE*4186.8/(1.3806488*6.02214129)

compute cc1 all chunk/atom bin/1d x center 2 units box
#fix TPROFILE all ave/chunk 1 500 500 cc1 v_TEMP density/number file temp.dat
fix TPROFILEox ox ave/chunk 1 500 500 cc1 v_TEMP density/number file temp-ox.dat
fix TPROFILEhy hy ave/chunk 1 500 500 cc1 v_TEMP density/number file temp-hy.dat

compute orderparam ox orientorder/atom degrees 1 2 nnn 4 cutoff 3.5
compute cc2 ox chunk/atom bin/1d x center 2 units box
#fix ORDERPARAM all ave/chunk 1 500 500 cc2 c_orderparam[1] file order-param.dat
fix ORDERPARAM all ave/chunk 1 500 500 cc2 c_orderparam[1] file order-param.dat

restart 50000 config.restart

run 500000
PPPM initialization ...
  extracting TIP4P info from pair style
WARNING: Using 12-bit tables for long-range coulomb (../kspace.cpp:316)
  G vector (1/distance) = 0.345621
  grid = 405 48 48
  stencil order = 5
  estimated absolute RMS force accuracy = 0.000405551
  estimated relative force accuracy = 1.2213e-06
  using double precision FFTs
  3d grid and FFT values/proc = 67260 38880
Neighbor list info ...
  2 neighbor list requests
  update every 1 steps, delay 1 steps, check no
  max neighbors/atom: 2000, page size: 100000
  master list distance cutoff = 12.3154
  ghost atom cutoff = 12.3154
  binsize = 6.1577 -> bins = 71 4 4
Memory usage per processor = 12.7778 Mbytes
Step PotEng TotEng Temp Atoms Volume Press Pxx Pyy Pzz Lx Ly Lz Xlo Xhi cold_res hot_resc 
       0   -103788.34   -94959.864    214.41918    20721    226064.02    76.547389    116.68375    81.981948    30.976466    435.06435    23.476653    22.133075   0.50542312    435.56978            0            0 
     100   -103662.74   -94671.398    218.37464    20721    226382.65    8.1044799    68.891852    76.764158   -121.34257      435.114    23.491852    22.147404   0.48060073     435.5946   -14.561194   -267.21669 
     200   -103691.73   -94631.329    220.05193    20721    226244.97   -7.1195303    49.491814   -135.59768    64.747276      435.197    23.482468    22.138557   0.43910058     435.6361    -20.38712   -305.89955 
     300   -103461.72   -94559.637    216.20687    20721    226213.22   -7.6257009   0.61669755   -107.84993    84.356133    435.01722    23.485672    22.141577   0.52899036    435.54621    2.5332697   -399.24389 
     400   -103571.15   -94554.574    218.98754    20721    226319.12    45.603071    255.96975    88.233518   -207.39405    435.24328    23.485067    22.141007   0.41596077    435.65924   -11.106876   -394.94395 
     500   -103469.14   -94518.982    217.37451    20721       226311    55.025532   -193.40943    40.477735    318.00829    435.14024    23.487426    22.143231   0.46747946    435.60772   -7.6046103   -432.42732 
     600   -103503.97   -94522.675    218.13069    20721    226368.47    17.148097 -0.023337334   -86.445096    137.91272    435.08259    23.491964     22.14751     0.496303     435.5789    24.698465   -459.42777 
     700   -103503.43   -94474.693    219.28283    20721    226451.72    12.671821    35.445249   -17.853153    20.423367    435.36038    23.488786    22.144514     0.357412    435.71779   -1.1625129   -480.90246 
     800   -103543.09   -94438.778    221.11844    20721    226410.77   -18.512348   -55.553857   -13.804033    13.820847    435.07743    23.494298     22.14971   0.49888478    435.57632    11.540064   -530.82996 
     900   -103463.77   -94405.311    220.00477    20721    226248.05   -31.422616     -138.862     116.1909   -71.596742    435.09398    23.485408    22.141328   0.49060773    435.58459    8.7987912   -564.82645 
    1000   -103542.56   -94347.416    223.32436    20721    226164.15   -42.228117   -122.50831    77.583753   -81.759789    434.98056    23.484114    22.140109   0.54732123    435.52788   -36.836685   -581.84902 
    1100   -103427.99   -94351.623    220.43959    20721     226331.9   -7.5291585    12.248894    127.33508   -162.17145    435.12773    23.488848    22.144572   0.47373432    435.60147   -7.4386946   -603.25922 
    1200   -103453.88   -94303.814    222.22948    20721    226435.24   -41.962885   -58.105083    46.706616   -114.49019    435.12718    23.494225    22.149641   0.47401106    435.60119    6.5074814    -660.4949 
    1300   -103414.23   -94278.706    221.87653    20721    226374.07    67.255325    67.175562   -33.275134    167.86555    435.08879    23.492087    22.147626   0.49320384      435.582   -13.716828    -674.4002 
    1400   -103369.96   -94233.037    221.91043    20721    226482.44    22.006532   -41.636605    108.24073   -0.5845294    435.23894    23.493656    22.149105   0.41812965    435.65707   -15.180631   -715.22632 
    1500   -103378.46   -94213.341    222.59516    20721    226453.29   -8.9888565   -49.835284   -176.32102    199.18973    434.84712    23.502726    22.157655   0.61403881    435.46116   0.24672169   -750.21412 
    1600   -103346.85   -94151.373    223.33246    20721    226514.33   -26.271908    37.521056   -318.36468     202.0279    434.98921    23.502054    22.157022   0.54299326    435.53221   -13.171983    -796.4133 
    1700   -103330.21   -94184.578    222.12187    20721    226526.49   -5.6628298    15.167076    133.23711   -165.39267    435.21177    23.496674     22.15195   0.43171273    435.64349   -1.3853004   -776.72372 
    1800   -103297.91    -94116.66    222.98701    20721    226491.79    15.534989   -59.159605    72.645452     33.11912    435.05946    23.498987     22.15413   0.50787225    435.56733   -8.9278958   -839.43168 
    1900   -103328.12   -94152.309    222.85479    20721    226497.41   -20.675579    119.09516    12.862718   -193.98461     435.1432    23.497017    22.152274   0.46600185     435.6092    2.1856648   -815.42233 
    2000   -103349.94   -94124.041    224.07148    20721    226513.21     21.57193    42.153602    79.531897   -56.969708    435.15272     23.49758    22.152804   0.46124061    435.61396  -0.27544639   -843.49835 
    2100   -103260.86   -94120.003    222.00582    20721    226315.09    60.428225    46.936033     113.4202    20.928441    434.99667    23.491514    22.147085   0.53926414    435.53594    5.3543206   -860.06446 
    2200   -103283.24   -94130.586    222.29247    20721    226600.08    17.937618    361.27214    88.431394   -395.89068     435.1994    23.500825    22.155863   0.43789786     435.6373  -0.43081073   -836.42522 
    2300   -103323.95   -94067.807    224.80603    20721    226629.69   -80.415357   -232.55303    180.44356    -189.1366    435.38856    23.497254    22.152497   0.34331853    435.73188    3.0169728   -899.09785 
    2400   -103235.93   -94010.481     224.0604    20721    226585.82    83.967663      135.708    346.67461   -230.47962    435.07956    23.503322    22.158217   0.49781898    435.57738    4.4838554   -969.05141 
    2500   -103241.62   -93990.189    224.69142    20721    226640.61    25.542439    128.38223    176.67396   -228.42888    435.37861    23.498088    22.153283   0.34829286    435.72691   -10.904027   -968.27187 
    2600   -103253.84   -93998.438    224.78785    20721    226607.85    20.690105     85.78801    71.759871   -95.477565    435.42469    23.495147     22.15051   0.32525314    435.74995   -25.670829   -948.12555 
    2700   -103231.76   -94016.685    223.80846    20721    226560.01   -14.386082    45.248498    168.48448   -256.89122    435.14058    23.500335    22.155402   0.46731185    435.60789    13.420977   -969.72922 
    2800   -103241.92   -94009.356    224.23337    20721    226528.62    -38.88645     -119.062   -45.687516    48.090167    435.34096    23.493298    22.148767   0.36711826    435.70808    16.682066   -981.07506 
    2900   -103133.69   -93948.733    223.07695    20721    226537.05   -5.1220671    118.19288   -180.02348    46.464393    435.27662    23.495471    22.150816   0.39929041    435.67591    21.607472   -1046.1729 
    3000   -103287.97   -93965.222    226.42359    20721    226519.23   -19.120371   -51.963881    154.14102   -159.53825    435.28152    23.494415     22.14982   0.39683972    435.67836    35.646476   -1047.6165 
    3100   -103174.06    -93927.95    224.56235    20721    226678.94    39.738304    113.94473    75.205064   -69.934885    435.70412    23.491295    22.146879   0.18553751    435.88966      14.8961   -1061.3586 
    3200   -103220.45   -93941.928    225.34937    20721    226526.53    38.959351   -138.80545    280.62697   -24.943469    435.23866    23.495951    22.151268   0.41827201    435.65693    20.408664   -1059.5549 
    3300   -103253.61    -93890.79    227.39678    20721    226747.53    37.005756   -105.88576    162.38897    54.514053    435.46845    23.501206    22.156223   0.30337698    435.77182    5.7122627   -1092.7021 
    3400      -103116   -93935.296     222.9737    20721    226541.87    32.604229   -30.457574   -26.222545    154.49281    435.38699    23.492743    22.148244   0.34410488     435.7311     19.20294   -1065.8677 
    3500   -103208.32   -93930.594    225.33018    20721    226595.28   -10.378654    36.049994   -354.98645     287.8005    435.46691    23.493356    22.148822   0.30414585    435.77105    21.438799   -1068.7793 
    3600   -103081.55   -93889.676     223.2449    20721    226685.23    79.092731    58.654916    131.11121    47.512068    435.43227    23.498954    22.154099   0.32146451    435.75374    21.483096   -1113.3961 
    3700   -103216.87   -93891.728    226.48175    20721    226673.45   -78.789724   -76.097947    10.481509   -170.75273    435.38586    23.499596    22.154704   0.34467172    435.73053    35.777219   -1120.4399 
    3800   -103228.07   -93849.168    227.78737    20721    226690.57   -44.849129   -226.96331   -140.00508      232.421    435.40286    23.500024    22.155108    0.3361703    435.73903    11.420305   -1138.5925 
    3900   -103138.96   -93817.191    226.39979    20721     226698.1    41.586138     142.3974   -202.01106    184.37207    435.50969    23.497532    22.152758   0.28275666    435.79244    3.2289406   -1167.5608 
    4000   -103110.19   -93767.181    226.91557    20721    226595.07    26.989615   -10.750921   -83.507406    175.22717    435.45407    23.493691    22.149138   0.31056413    435.76464    7.1036875   -1224.2091 
    4100   -103114.45     -93781.3    226.67632    20721     226782.1   -87.497755    20.777969   -128.49336   -154.77788    435.61296    23.499099    22.154236   0.23111809    435.84408    10.474096   -1203.7064 
    4200   -103107.41     -93772.1    226.72873    20721    226558.03   -71.924083   -66.908677   -267.66673    118.80316    435.42865    23.492458    22.147975    0.3232765    435.75192    7.5476817   -1217.6435 
    4300    -103023.6   -93726.187    225.80826    20721    226756.74   -64.391099   -111.37457    177.77432   -259.57305    435.46094    23.501886    22.156863   0.30712775    435.76807    19.099331    -1271.052 
    4400    -103093.6     -93715.6    227.76549    20721    226684.77   -17.530898   -128.84568   -24.543781    100.79676    435.47295    23.497832    22.153041   0.30112276    435.77408    10.401916   -1278.0178 
    4500   -103020.55   -93696.284    226.46043    20721    226648.58   -13.858803    -33.95171    3.5794336   -11.204132    435.35347     23.49918    22.154313   0.36086479    435.71434    21.208906   -1310.4324 
    4600   -103026.82   -93663.655    227.40523    20721    226594.72   -39.871158    155.39443     199.2133   -474.22121    435.26317    23.498825    22.153978   0.40601741    435.66918   -5.0785497   -1317.5246 
    4700   -103030.14   -93663.119     227.4989    20721    226650.08   -29.308611    131.99108   -215.91991   -3.9970084    435.45666    23.496474    22.151761   0.30927052    435.76593  0.064109067   -1321.0313 
    4800    -103053.9   -93684.368    227.55981    20721    226652.78   -36.677105   -47.402548    95.852527   -158.48129    435.41122    23.497839    22.153049   0.33198944    435.74321   -1.1413565   -1300.2313 
    4900   -103131.89   -93639.646    230.54016    20721    226769.82   -23.651711   -32.073554   -48.819137    9.9375582    435.35633    23.505387    22.160164   0.35943259    435.71577    -11.48682   -1332.9964 
    5000   -102950.22   -93594.866    227.21539    20721     226603.4    18.001704    17.178461    114.66001   -77.833358    435.48386     23.49332    22.148788   0.29567123    435.77953   -13.724968   -1382.6194 
    5100   -102920.94   -93585.261    226.73751    20721    226701.14    64.463374    123.97742    49.469295    19.943412    435.53767    23.496934    22.152195   0.26876333    435.80644   -9.6176219   -1396.1111 
    5200   -102993.16   -93582.706    228.55375    20721    226651.98   -55.816686    32.992016   -240.59436    40.152283    435.48083     23.49592    22.151239    0.2971828    435.77802   -13.391225   -1392.4152 
    5300   -102875.01   -93495.864    227.79334    20721    226654.49    133.51104   -22.577255    -182.2287    605.33908    435.40484    23.498101    22.153295    0.3351812    435.74002   -10.837211   -1491.4643 
    5400   -103023.03   -93524.398    230.69524    20721    226581.59   -104.03657    35.445172   -269.43134   -78.123538    435.28343    23.497597    22.152821   0.39588745    435.67931   -21.971876   -1443.5524 
    5500   -102995.99   -93461.351    231.56973    20721    226739.74   -36.769267   -117.90698    26.748163   -19.148986    435.41241    23.502315    22.157268    0.3313943    435.74381   -25.666853    -1504.935 
    5600    -102994.4   -93479.857     231.0818    20721    226460.26    63.674922   -3.5534223    43.636625    150.94156    435.17185    23.494316    22.149727   0.45167401    435.62353   -40.639789   -1483.4156 
    5700   -102907.76   -93464.165    229.35853    20721    226763.35    26.621294    127.70711   -37.768542   -10.074689    435.51903    23.500661    22.155709   0.27808586    435.79711   -33.708227   -1496.9189 
    5800   -103005.06   -93446.568    232.14907    20721    226633.22   -101.60317   -101.73745   -33.629454    -169.4426    435.40704    23.496938    22.152199   0.33408142    435.74112   -27.430552   -1519.5183 
    5900   -102883.88   -93429.383    229.62342    20721    226553.86    4.4783496    46.948473     154.6565   -188.16992    435.49063    23.490569    22.146195     0.292283    435.78292   -29.411317   -1542.3829 
    6000    -102882.3   -93444.601    229.21541    20721    226663.88  -0.28243768   -5.7227079    29.368571   -24.493176    435.33056    23.500592    22.155643   0.37231981    435.70288   -15.887907   -1537.2119 
    6100   -102894.32   -93470.594    228.87601    20721    226518.18   -18.757447   -11.212566    58.534253   -103.59403    435.24051    23.495468    22.150813   0.41734469    435.65786   -24.181451   -1508.0152 
    6200   -102965.49   -93451.436    231.06994    20721    226470.45    19.440891    90.620112   -15.419477   -16.877963    435.28455    23.491804    22.147358   0.39532711    435.67987   -8.2623472    -1546.937 
    6300   -102910.78   -93443.523    229.93317    20721    226418.61   -81.257138    39.800405    -77.81541   -205.75641    435.04692    23.495529     22.15087   0.51413827    435.56106    4.7009317   -1565.9279 
    6400   -102909.13   -93455.005    229.61439    20721    226523.84    45.611575    139.00582    128.62498   -130.79608    435.20888    23.496615    22.151894   0.43315954    435.64204   -11.703986   -1543.8869 
    6500   -102864.04   -93390.707    230.08077    20721    226510.24   -9.8476675    66.472641    208.78842   -304.80407    435.19604    23.496256    22.151556   0.43958135    435.63562   0.41114578   -1617.6229 
    6600    -102879.1    -93368.02    230.99768    20721    226486.91   -2.0458356   -222.00755    60.194843     155.6752    435.18482    23.495349    22.150701   0.44519182    435.63001   -16.428509   -1624.3288 
    6700   -102872.36   -93369.994    230.78592    20721    226363.28    34.233801    101.29752   -88.767041    90.170926    435.25311    23.487093    22.142917   0.41104696    435.66415   -9.3104984   -1635.5658 
    6800   -102769.36   -93323.248    229.41973    20721    226668.74    69.300124     102.0867    134.45665   -28.642982    435.50119    23.496239     22.15154   0.28700422     435.7882   -2.2752263   -1683.3734 
    6900   -102746.98   -93267.353    230.23369    20721    226577.76    67.839212    144.09855    441.83941   -382.42033    435.50892    23.491315    22.146897   0.28314117    435.79206   -11.328102   -1733.8178 
    7000   -102802.64   -93249.821    232.01128    20721    226683.68   -83.184047    -154.1589   -47.941722   -47.451519    435.34652    23.501188    22.156205   0.36433988    435.71086   -24.534404   -1730.1715 
    7100   -102724.42   -93240.659    230.33414    20721    226582.84    34.951921   -9.5445802    8.0767247    106.32362    435.33755    23.496202    22.151505   0.36882641    435.70637   -7.5502161   -1764.5177 
    7200   -102812.09   -93227.214    232.79001    20721    226678.93    -6.758185    11.336431    -300.0872    268.47622    435.32435    23.501539    22.156537   0.37542347    435.69978   -3.9340104   -1778.3002 
    7300   -102827.58    -93241.29    232.82423    20721    226508.66    14.890927    37.917849   -79.865777    86.620709    435.10813    23.498548    22.153716   0.48353562    435.59166   -28.413062   -1746.4268 
    7400   -102815.31   -93230.909    232.77828    20721    226686.09   -21.195125   -37.289683   -191.03948    164.74379    435.25583     23.50376    22.158631   0.40968654    435.66551   -23.495128   -1755.3203 
    7500   -102755.81   -93229.068    231.37797    20721    226483.16   -46.378224   -94.877919   -262.56315     218.3064    435.01578    23.499719    22.154821   0.52970836    435.54549   -20.971326   -1767.2687 
    7600   -102737.38   -93197.698    231.69224    20721    226767.22    56.088541    27.924111    140.47112  -0.12961077    435.30955    23.506515    22.161228   0.38282451    435.69238   -39.442164   -1778.0604 
    7700   -102690.11   -93203.802    230.39608    20721    226552.93   0.71496339   -46.973297   -42.860805    91.978992    435.25235     23.49695     22.15221   0.41142504    435.66377   -1.2351212    -1811.773 
    7800   -102758.64   -93242.964    231.10926    20721    226661.99    70.154088    109.27077    -74.63607    175.82757    435.19838    23.504062    22.158915   0.43841077    435.63679    1.7908532   -1779.6299 
    7900   -102803.66   -93255.878    231.88905    20721    226524.31    -41.75732   -53.336509    8.4898429   -80.425294    435.21748    23.496407    22.151699   0.42886244    435.64634    20.953573   -1786.0041 
    8000   -102818.66   -93235.708    232.74332    20721    226762.06   -26.000825    101.47911   -55.283908   -124.19768    435.54963    23.499769    22.154868   0.26278409    435.81242    18.760208    -1798.718 
    8100   -102812.13   -93232.175    232.67029    20721    226624.76   -50.893374   -54.279146   -270.44416    172.04318    435.35159    23.497996    22.153196   0.36180515    435.71339    23.609238   -1811.8971 
    8200   -102758.48   -93202.069    232.09855    20721    226826.05     56.08593    71.965841    253.86308   -157.57113    435.32551    23.509133    22.163696   0.37484267    435.70036    11.605869   -1830.2779 
    8300   -102693.78   -93231.957     229.8014    20721    226588.61     27.29058    55.614741    -30.13836     56.39536    435.20266    23.500142    22.155219   0.43626846    435.63893    23.583117   -1817.7661 
    8400   -102777.48   -93247.301    231.46157    20721    226672.12   -7.7271132    -149.5464    117.39935    8.9657107    435.28265    23.502312    22.157265   0.39627304    435.67893    6.6419233   -1783.4762 
    8500   -102809.96   -93216.822    232.99067    20721    226740.73    -4.163629   -127.57351    52.153015    62.929604    435.42013    23.502158     22.15712   0.32753384    435.74767    17.270469   -1823.8702 
    8600   -102752.06   -93200.524    231.98032    20721    226729.79   -30.727603    213.14616   -69.988281   -235.34069    435.37583    23.502787    22.157713   0.34968686    435.72551    22.449079   -1844.3288 
    8700   -102776.36   -93209.973    232.34091    20721    226758.48   -13.109962   -62.465501   -31.382757    54.518371    435.57582    23.498876    22.154026   0.24968792    435.82551    14.074373   -1829.0485 
    8800   -102715.15   -93189.701    231.34658    20721     226797.6    54.292482    33.525826    89.443663    39.907958     435.5349    23.502007    22.156978    0.2701485    435.80505    5.0414272   -1841.2813 
    8900   -102758.93   -93197.617    232.21756    20721    226755.64    60.129429   -45.179378   -23.228196    248.79586    435.69837    23.495425    22.150772   0.18841531    435.88678    25.031666   -1857.3361 
    9000    -102723.2   -93146.799     232.5842    20721    227031.84   -30.911893    72.071943   -90.355474   -74.452147    435.63064    23.511557    22.165981   0.22228054    435.85292    5.0345596   -1878.0996 
    9100   -102667.16   -93118.611    231.90753    20721     226897.6   -22.517275   -98.079392    65.128467   -34.600899    435.62595    23.504732    22.159546    0.2246251    435.85057   -3.1170226   -1901.1419 
    9200   -102735.61   -93131.995      233.245    20721    226934.75    47.097222    67.568024    162.39092   -88.667279    435.61413    23.506975    22.161661   0.23053645    435.84466   -5.1023266   -1891.9746 
    9300   -102727.21   -93154.435    232.49593    20721    226796.62    25.414213    73.156827   -169.46117    172.54698    435.63756    23.499187    22.154319   0.21881987    435.85638    10.365258   -1889.9398 
    9400   -102682.97   -93128.458    232.05237    20721    226633.69   -57.753806   -104.89706   -40.886267   -27.478091    435.43946    23.496088    22.151397   0.31786809    435.75733    6.3002106   -1909.6458 
    9500   -102709.27   -93101.351    233.34959    20721    226921.93    15.490381    70.384303    11.178381   -35.091541     435.5877    23.507024    22.161707    0.2437478    435.83145    8.8752165   -1938.1705 
    9600   -102605.82   -93077.797    231.40905    20721    226828.71    46.927193    35.331124    41.875157    63.575299    435.55235    23.503149    22.158054   0.26142525    435.81377    7.1984527   -1963.3408 
    9700   -102721.62   -93055.428    234.76476    20721    226853.13   0.75986136   -62.267724   -71.226881    135.77419    435.47314    23.506552    22.161262   0.30103223    435.77417   -12.256102   -1967.1779 
    9800    -102707.7   -93005.824    235.63151    20721    226768.16    -52.89187   -156.72519    209.81701   -211.76743    435.37585    23.504774    22.159587   0.34967708    435.72552   -24.984677   -2003.2973 
    9900   -102662.08   -92998.112    234.71098    20721    226867.82   -34.040638   -73.279296   -92.095222    63.252605    435.62183      23.5033    22.158197   0.22668659    435.84851   -22.654104   -2012.6526 
   10000    -102583.8   -93030.198    232.03045    20721    226764.96    34.271491    40.296295    140.69691   -78.178729    435.27408    23.507356    22.162021   0.40056182    435.67464   -17.855068   -1991.6827 
   10100   -102458.07   -92971.602    230.39989    20721    226728.24    45.843359    38.730841    104.07036   -5.2711256    435.31968    23.504221    22.159065   0.37776089    435.69744   -45.384359   -2024.1995 
   10200   -102653.22   -92965.279    235.29307    20721    226939.97   -1.9057385   -3.3864545    152.67013   -155.00089    435.52357    23.509689     22.16422   0.27581368    435.79939   -30.476554   -2038.9825 
   10300      -102616   -92964.962    234.39681    20721    226704.98    25.901577    95.451722   -110.49321    92.746225    435.29924    23.503568    22.158449   0.38798047    435.68722   -22.674903   -2057.3562 
   10400   -102576.03   -92965.277    233.41841    20721    226688.03    58.122929    100.54788   -55.085568    128.90647    435.14654    23.506813    22.161508   0.46433186    435.61087   -17.963444    -2062.647 
   10500   -102619.44   -92978.721    234.14624    20721    226617.85   -48.558314    1.2776516    108.87711    -255.8297    435.29797    23.499085    22.154223   0.38861646    435.68658   -22.668761   -2042.9342 
   10600   -102604.27   -93005.696    233.12259    20721    226588.67    45.345917    56.527062    -97.99026    177.50095    435.27627    23.498158    22.153349   0.39946605    435.67573   -23.133136   -2021.6157 
   10700   -102503.35    -92891.34    233.44888    20721    226715.47    18.130614    -130.4141    127.20603    57.599917     434.9618    23.513227    22.167556   0.55670114     435.5185   -19.567166   -2135.7547 
   10800    -102575.2   -92904.736    234.86852    20721    226660.75    40.851611    156.52467    37.727532   -71.697368    435.25743    23.502403    22.157351   0.40888337    435.66632   -17.324532   -2128.2749 
   10900   -102547.62    -92905.59      234.178    20721    226714.01   -57.848571   -86.039148    109.49824   -197.00481    435.49074    23.498868    22.154018   0.29223074    435.78297   -25.239408   -2114.3296 
   11000   -102478.79   -92868.311    233.41172    20721    226679.24    73.539017    111.28351    70.046768    39.286777    435.21789     23.50443    22.159262    0.4286547    435.64655   -25.985958   -2159.9961 
   11100   -102565.94   -92860.157    235.72638    20721    226803.29   -32.848991   -109.03655   -213.59014    224.07971    435.23144    23.510494    22.164979   0.42188189    435.65332   -14.543411   -2172.3235 
   11200    -102624.4   -92868.195    236.95097    20721    226740.29    34.303585    89.936901   -160.40054     173.3744    435.16685    23.508973    22.163545   0.45417639    435.62102   -28.004461   -2157.4025 
   11300    -102456.6    -92855.29    233.18908    20721    226639.64    48.118884    38.533294    253.81388   -147.99053    435.29596    23.500269    22.155339    0.3896191    435.68558   -8.8090087    -2192.305 
   11400    -102543.9   -92861.985    235.14683    20721    226667.83   -37.018482    36.270804   -256.25514    108.92889    435.43752     23.49791    22.153115    0.3188401    435.75636    11.804602   -2203.3996 
   11500   -102551.99   -92847.592    235.69278    20721    226592.14    28.905496    15.620615    107.10988   -36.014003    435.21188    23.500076    22.155157   0.43165908    435.64354     2.625332   -2213.3839 
   11600    -102460.8    -92851.42    233.38503    20721    226621.28    116.43472     250.3686    112.71776   -13.782201    435.36929    23.497338    22.152576   0.35295631    435.72224     12.09459   -2222.5884 
   11700   -102510.52    -92835.51    234.97911    20721    226535.78   -88.720154   -202.44983    -75.61005    11.899418    435.46923    23.490209    22.145855    0.3029843    435.77222    8.9050561   -2229.8363 
   11800   -102518.68   -92834.548    235.20052    20721    226444.96    74.844185    47.841325    39.861626     136.8296     434.9655    23.499095    22.154232   0.55485149    435.52035  -0.02475436   -2235.0163 
   11900   -102494.44   -92812.788    235.14043    20721    226559.95    62.896753     39.23643    89.334064    60.119764    435.01177     23.50381    22.158678   0.53171409    435.54349    10.958729   -2263.9302 
   12000   -102525.27   -92831.706     235.4296    20721    226543.82    2.5318754    85.771724    18.150568   -96.326667    434.99637     23.50339    22.158282    0.5394162    435.53578    7.0781809   -2239.4047 
   12100   -102422.94   -92772.019    234.39403    20721    226653.98     8.358961    48.393163   -321.04051    297.72423    435.12456    23.505641    22.160403   0.47531817    435.59988    4.7223884   -2294.3003 
   12200   -102403.03   -92778.973     233.7416    20721    226562.04   -6.1837392   -71.747401   -266.65611    319.85229    434.99707    23.504316    22.159155   0.53906591    435.53613    13.662841   -2298.2858 
   12300   -102492.88   -92747.461    236.68901    20721    226640.48   -21.487955    37.587107    7.0469279    -109.0979    435.12162     23.50502    22.159818    0.4767924    435.59841   -3.0071097   -2312.1638 
   12400   -102479.72   -92776.378    235.66704    20721    226491.99    11.015294    9.0462014   -34.873924    58.873605    434.84653     23.50475    22.159564   0.61433582    435.46086     15.77478   -2310.3366 
   12500   -102540.43   -92730.431    238.25763    20721    226638.48    -49.20616    86.158432   -146.10322    -87.67369    435.09287    23.505693    22.160453   0.49116565    435.58403   -9.7612433   -2324.2217 
   12600   -102436.08    -92727.22    235.80111    20721    226531.89    -19.30449   -42.939648   -75.203905    60.230084    435.03877    23.501626    22.156619    0.5182146    435.55699   -12.936331   -2329.2673 
   12700   -102512.05   -92676.707    238.87313    20721    226688.31    15.828528    19.126237   -137.06383    165.42317    435.16679     23.50628    22.161006   0.45420254      435.621   -14.579447   -2375.7863 
   12800   -102395.78   -92643.494    236.85587    20721    226456.62    1.1759415    7.2554554    114.90492   -118.63255    434.86072    23.502531    22.157472   0.60724095    435.46796   0.44605615   -2430.5982 
   12900   -102496.29   -92700.685    237.90805    20721    226645.57   -4.9110648    26.318393   -58.942931    17.891344    434.76848    23.514828    22.169065    0.6533616    435.42184    24.407805   -2395.8117 
   13000   -102330.07   -92656.146     234.9527    20721       226690    119.82688    113.81104    125.42258    120.24701     435.2872    23.503116    22.158023   0.39399903     435.6812  -0.88275264   -2419.1852 
   13100   -102446.46   -92682.046    237.15035    20721    226479.22    67.986679   -132.00211    234.48117    101.48098     435.0056     23.49979    22.154887   0.53480219     435.5404   -14.309081   -2385.5259 
   13200   -102259.48   -92635.175    233.74767    20721    226564.99   -5.7396582    39.091116    1.6227218   -57.932813    434.85785    23.508232    22.162846   0.60867728    435.46652    8.4401155   -2448.5403 
   13300   -102460.75   -92650.071    238.27415    20721     226748.9    -44.00714   -28.350343   -91.084176   -12.586901    434.80502    23.519199    22.173186   0.63508852    435.44011    10.700317   -2432.4993 
   13400   -102447.26   -92644.246    238.08791    20721    226585.02   -7.9652718     58.19147   -47.736261   -34.351024    434.65577    23.514735    22.168977   0.70971407    435.36549    24.962349   -2459.6528 
   13500   -102415.79   -92587.245    238.70796    20721    226549.01   -58.016379    -6.543616   -206.44601    38.940493    434.78742    23.509306    22.163859   0.64388969    435.43131    15.666345   -2506.3628 
   13600   -102264.27   -92557.861    235.74156    20721    226597.11    101.37505    104.08756    -115.6743    315.71189    434.84664    23.510201    22.164703   0.61427812    435.46092    2.1634478   -2528.2284 
   13700   -102203.78    -92534.03    234.85134    20721    226476.12   -5.8951619    29.442101   -155.70605    108.57846    434.96669     23.50068    22.155727    0.5542551    435.52094    7.6603003   -2556.8717 
   13800   -102341.51   -92519.483    238.54956    20721    226757.14    91.138861    208.26949    119.99258   -54.845483    435.15129    23.510267    22.164765    0.4619543    435.61325    8.0950055    -2570.613 
   13900   -102205.83   -92453.336    236.86081    20721    226704.51    41.060689    4.3112046    138.92356   -20.052695    435.29451    23.503671    22.158546   0.39034468    435.68486    -8.643232   -2619.8935 
   14000   -102351.23   -92470.905    239.96557    20721    226814.08   -37.769293   -158.84614   -142.20302    187.74127    435.19447    23.512052    22.166448   0.44036271    435.63484    10.617415   -2618.0917 
   14100   -102315.21   -92443.811    239.74887    20721    226908.42      25.6726   -5.5866572    65.513446     17.09101    435.22916    23.516004    22.170174   0.42302106    435.65218   -8.1153386   -2625.6848 
   14200   -102241.18   -92476.633    237.15361    20721    226845.48    124.79921    64.273583    74.860006    235.26404    435.28191    23.511318    22.165755   0.39664514    435.67855    3.9565528   -2610.9299 
   14300   -102219.21   -92446.073    237.36216    20721    226803.11    75.832353    192.75124    133.77774   -99.031927    435.08328    23.514488    22.168744   0.49596034    435.57924     4.235641    -2643.967 
   14400   -102321.61   -92407.704    240.78122    20721    226955.84   -120.80259    84.770327   -293.50716   -153.67094    435.24632    23.517998    22.172053   0.41444248    435.66076   -10.564209   -2654.8618 
   14500   -102229.12   -92396.951     238.7961    20721    226878.16   -31.206492   -94.003155   -193.93335    194.31703    435.35264    23.511101    22.165552   0.36128188    435.71392  -0.90343168   -2684.1824 
   14600   -102243.55   -92361.829    239.99957    20721    226926.76   0.22701276   -143.01248    50.430265    93.263249    435.17962    23.518293    22.172332   0.44779125    435.62741    2.4219203   -2721.4789 
   14700   -102190.23   -92401.283    237.74626    20721    226865.99    43.784904    93.477205   -58.522709    96.400217    435.36276    23.510197    22.164699   0.35622031    435.71898    8.1266252    -2694.232 
   14800    -102243.1    -92425.36    238.44551    20721    226926.09   -47.562024    73.886919   -90.872353   -125.70064    435.46219    23.510627    22.165104   0.30650366     435.7687    20.958618   -2674.7395 
   14900   -102176.11   -92410.246    237.18557    20721    227020.53    30.477048    20.632661    5.0940797    65.704403     435.8046    23.506279    22.161005     0.135299     435.9399     6.012062   -2679.3025 
   15000   -102133.32   -92366.885    237.19952    20721    226825.76    53.641106    20.525475   -50.124361    190.52221    435.30105    23.509779    22.164305   0.38707342    435.68813    2.5459822   -2725.7697 
   15100   -102147.01    -92388.07    237.01745    20721    227024.61    23.058976    67.417333     164.6308   -162.87121    435.48121    23.515216    22.169431     0.296997     435.7782    2.0088766   -2699.9982 
   15200   -102089.85   -92323.947    237.18649    20721    226954.85    35.200756    313.49667   -223.46691    15.572501    435.63443    23.507468    22.162126   0.22038506    435.85481   -6.4065053   -2758.6117 
   15300   -102182.08   -92326.327    239.36872    20721    226880.68   -79.779751   -37.283833   -284.19915    82.143725    435.57557    23.505214    22.160001    0.2498148    435.82539    22.946464   -2785.0333 
   15400    -102146.2   -92352.792     237.8547    20721     226747.6   -17.108687   -60.130492    67.235546   -58.431116    435.34401    23.504568    22.159392   0.36559739     435.7096     19.77655   -2762.9558 
   15500    -102139.7   -92351.594     237.7258    20721    226804.57    21.851647    238.37344    39.477532   -212.29603    435.47737    23.503921    22.158782    0.2989156    435.77628    6.6288495   -2751.2189 
   15600   -102188.02   -92327.957    239.47354    20721    226731.47     82.47522    82.798705   -31.999375    196.62633    435.36265    23.503229     22.15813   0.35627403    435.71893    2.2457483   -2778.6099 
   15700   -102124.82    -92349.34    237.41914    20721    226679.66   -102.35733   -163.38894   -258.45913    114.77608    435.24502    23.503719    22.158591   0.41508755    435.66011    26.981286   -2772.8191 
   15800   -102194.09    -92296.03    240.39637    20721    226599.84    42.850352   -1.0179403    66.807097    62.761898    435.10056    23.503481    22.158368   0.48732096    435.58788   -14.375421   -2797.8397 
   15900   -102113.24   -92307.181    238.16186    20721     226693.8    50.489312    58.349573    123.76958   -30.651217    435.10595    23.508208    22.162824     0.484627    435.59057   -5.9918542   -2793.4612 
   16000   -102182.96   -92324.056    239.44526    20721    226423.85    82.923646    29.339612     121.7958    97.635523    434.95367     23.49832    22.153501   0.56076716    435.51443   -6.7016659    -2784.765 
   16100   -102115.23   -92292.819    238.55901    20721    226446.84   -56.471011   -19.765027    -158.4633    8.8152894    435.01649    23.497815    22.153026   0.52935412    435.54585 -0.016692449   -2815.7394 
   16200   -102112.59   -92291.356    238.53036    20721    226582.13    101.46232    48.645032    22.693973    233.04795    435.10136    23.502541    22.157482   0.48692192    435.58828    4.7348983   -2826.7109 
   16300    -102091.5   -92296.627    237.89023    20721    226376.76    10.586402   -100.27572    13.911968    118.12295    435.03359    23.493718    22.149163   0.52080625    435.55439    5.6656328   -2824.8688 
   16400   -102122.56   -92316.944    238.15099    20721    226482.96    39.785336   -34.769897   -12.070212    166.19612    434.77881    23.506112    22.160847   0.64819618      435.427    4.7622918   -2802.8113 
   16500    -102024.2   -92219.136    238.13756    20721    226517.48   -74.683499    68.533511   -22.847386   -269.73662    435.10175    23.499177     22.15431   0.48672734    435.58847    19.023303   -2908.9921 
   16600   -102039.41   -92200.188    238.96724    20721    226698.86    64.662088    157.71516   -13.967648    50.238755    435.01649    23.510887     22.16535   0.52935666    435.54584      14.7581   -2927.2335 
   16700   -102106.83   -92214.477    240.25759    20721       226646    -11.16339   -99.847272    149.08361   -82.726511    434.87226    23.512044    22.166441   0.60146962    435.47373     17.13996    -2916.068 
   16800   -102081.95   -92232.432    239.21736    20721    226551.28     71.74552      69.0552    162.59724   -16.415876    435.00568    23.503526    22.158409   0.53476079    435.54044    45.320988   -2931.5314 
   16900      -101940   -92220.669    236.05556    20721    226494.95    59.392853   -27.185808    2.1931734    203.17119    434.98149    23.501257     22.15627   0.54685423    435.52835    34.437007   -2933.5639 
   17000   -102071.66   -92207.375    239.57591    20721    226753.72   -3.4170176    24.392303   -11.509984   -23.133372    435.34155    23.504952    22.159754   0.36682424    435.70838     46.38162   -2949.5629 
   17100      -102006   -92187.026    238.47549    20721    226464.35    3.6380074    57.630247    152.88994   -199.60617    434.97216    23.499921    22.155011   0.55152022    435.52368    41.088857   -2974.3181 
   17200   -102050.54   -92241.024    238.24577    20721    226328.23   -5.2239344   -114.78105   -33.469967    132.57922    435.02163    23.491522    22.147093   0.52678302    435.54842    42.542246   -2927.6045 
   17300   -102103.89   -92201.775    240.49474    20721    226426.06    -110.7966   -55.687691    -222.4253   -54.276803    434.95091    23.498508    22.153679    0.5621458    435.51305     50.37383   -2967.8261 
   17400    -101973.7    -92154.96    238.46975    20721    226338.19   -68.768267   -80.663461    -119.9972   -5.6441373    434.76561    23.498955      22.1541   0.65479267    435.42041    27.959896   -2995.6021 
   17500    -101963.5   -92063.926    240.43305    20721     226421.5    35.585663    -109.9948    65.568015    151.18377    434.87669    23.500277    22.155347   0.59925643    435.47594    19.579654   -3081.0979 
   17600   -101895.19   -92096.977    237.97127    20721    226300.73   -53.534457    59.801428   -6.1639622   -214.24084    434.71261    23.498442    22.153617   0.68129347    435.39391    15.593529    -3043.374 
   17700   -101931.38   -92070.511    239.49301    20721     226553.6    26.325763    11.668763   -41.829896    109.13842    435.04775    23.502509    22.157451   0.51372708    435.56147    2.2466187   -3056.7419 
   17800   -101930.58   -92104.545    238.64707    20721    226255.98   -21.211958   -164.79676    21.103578    80.057305    434.62317    23.498536    22.153705   0.72601304    435.34919   -8.8406334   -3020.1962 
   17900   -101988.73   -92094.035    240.31456    20721    226303.56   -69.794114   -172.76516   -157.26295    120.64577    434.34076    23.508646    22.163237   0.86721806    435.20798   -9.6920098   -3027.9258 
   18000   -102024.76   -92094.737    241.17257    20721    226291.97    -25.69166   -9.7976642    74.047396   -141.32471    434.52593    23.503034    22.157946   0.77463469    435.30057   -14.841086   -3026.2815 
   18100   -101945.21   -92103.834    239.01963    20721    226240.81    6.0697758    21.193431    51.544643   -54.528747     434.6712     23.49645    22.151739   0.70199832     435.3732   -24.429278   -3010.1614 
   18200   -102021.04   -92109.897    240.71404    20721    226200.47   -49.749367   -139.26965     221.6896   -231.66805    434.61563    23.495857     22.15118   0.72978493    435.34542   -13.245181   -3012.7653 
   18300   -102004.61   -92116.607    240.15214    20721    226464.51   -61.197533   -71.578627    32.187395   -144.20137     434.6577    23.508429    22.163032   0.70874762    435.36645   -8.5410335   -3005.6517 
   18400   -101933.13   -92044.528    240.16653    20721     226193.6    15.661631   -120.91301    47.627675    120.27022    434.59251    23.496125    22.151433   0.74134523    435.33385   -30.633287   -3066.5024 
   18500   -101915.19   -92032.903    240.01312    20721    226089.08   -7.0178331    58.897632   -35.484578   -44.466553    434.17598    23.501962    22.156935   0.94960784    435.12559   -38.791225   -3074.7389 
   18600   -101869.17   -92030.678    238.94944    20721    226231.42     56.46097    80.960789   -1.3513851    89.773506    434.46321    23.501586    22.156581   0.80599335    435.26921   -37.422236   -3076.7708 
   18700   -102002.14   -92033.179     242.1182    20721    226249.78   -8.7434013   -4.5050736    11.297546   -33.022676    434.26558    23.507887    22.162521   0.90481218    435.17039   -36.644102   -3075.7498 
   18800   -101940.28   -91991.075     241.6385    20721    226088.95   -76.697645   -247.94087    74.388092   -56.540159    434.08131    23.504517    22.159344   0.99694256    435.07826   -37.255647   -3120.3471 
   18900   -101971.84   -91981.645    242.63397    20721    226369.39   -46.934537    -89.79852   -150.35976     99.35467    434.25296    23.514442    22.168701   0.91112231    435.16408   -24.097288   -3136.0031 
   19000   -101963.94   -91999.146    242.01704    20721    226226.49    17.877373    116.12228   -123.33109    60.840925     434.1775    23.509061    22.163628   0.94884899    435.12635   -45.637069   -3104.6675 
   19100   -101933.61    -92031.08    240.50479    20721    226207.58   -4.6771153    14.209846    39.824188    -68.06538    434.06861    23.511027    22.165482     1.003297     435.0719   -13.971426   -3104.8994 
   19200   -101816.73   -92043.269    237.37005    20721    226224.69    40.845007    63.657211    68.352766   -9.4749543    434.29571    23.505768    22.160524   0.88974446    435.18546   -50.834123   -3056.8363 
   19300   -101940.34   -92041.429    240.41685    20721    226260.87    91.936815    88.940041    120.89338    65.977027    434.18431    23.510663    22.165139   0.94544505    435.12975   -40.908065   -3072.6163 
   19400    -101993.8   -92008.862    242.50643    20721    226133.92   -37.434152     31.07945   -76.143242   -67.238664    434.05725    23.507506    22.162162    1.0089768    435.06622   -24.233012   -3122.4164 
   19500   -101887.63   -91958.722    241.14556    20721    226222.29    29.604325     42.10607    -203.8236     250.5305    434.22473    23.507565    22.162217    0.9252342    435.14997   -57.437114   -3138.0509 
   19600   -101987.91   -91982.993    242.99146    20721    226180.48   -58.644007   -249.85672     108.8492   -34.924493    434.33765    23.502337    22.157288   0.86877667    435.20642   -51.834188   -3120.1913 
   19700   -101865.89   -91955.134    240.70454    20721    226244.01   -48.793932   -109.58142    -144.5074    107.70703    434.36301    23.504951    22.159753   0.85609599     435.2191   -23.013687   -3175.0747 
   19800   -101848.71   -91860.518    242.58544    20721     226154.8   -38.360604    16.763741    23.971716   -155.81727    434.45658    23.497785    22.152998   0.80930879    435.26589   -41.751477   -3253.5069 
   19900    -101829.1   -91886.376    241.48107    20721    226307.11    33.378401    34.733929   -119.54749    184.94876    434.29525    23.510062    22.164572   0.88997313    435.18523    -26.59854   -3244.5437 
   20000   -101858.95   -91930.664    241.13036    20721    226248.27    27.328152    70.187089    -59.97099    71.768357    434.36182    23.505204    22.159992    0.8566919    435.21851    5.4186263   -3235.7677 
   20100   -101795.24   -91873.003    240.98361    20721    226336.48     12.99649    216.89622   -39.440012   -138.46674    434.53345    23.505143    22.159934   0.77087582    435.30432   -22.403038   -3262.4915 
   20200   -101853.55   -91865.982    242.57028    20721    226404.71   -62.203067    9.9244492   -138.67572   -57.857928    434.76393    23.502453    22.157398   0.65563524    435.41956   -4.2629549    -3282.779 
   20300   -101792.44   -91869.208    241.00773    20721    226414.38    1.3020172   -68.139882   -110.76853    182.81446    434.49385    23.510258    22.164757   0.79067337    435.28453    -22.79047   -3264.2242 
   20400   -101743.33   -91882.085    239.50206    20721    226465.77    20.942549    131.21811   -184.29146      115.901    434.77467    23.505332    22.160112   0.65026528    435.42493   -8.9041204   -3267.0868 
   20500   -101844.98   -91847.599     242.8086    20721    226511.17   -81.145532   -193.35156   -184.00853     133.9235    434.54388    23.513929    22.168218   0.76565817    435.30954   -5.3445368   -3300.2569 
   20600   -101707.58   -91871.392     238.8936    20721    226339.62    54.614458    3.1779278     174.1907    -13.52525    434.62361    23.502867    22.157789     0.725796     435.3494    19.422697   -3312.5556 
   20700   -101826.36   -91833.152    242.70717    20721    226617.13   -31.236645   -48.343526   -148.41809    103.05168    434.91427    23.509411    22.163958   0.58046589    435.49473    6.7105692   -3327.3313 
   20800   -101770.09    -91843.21    241.09631    20721    226416.51    77.989965    59.454539    231.73586   -57.220506    434.62774    23.506747    22.161447   0.72373058    435.35147    1.7133287   -3325.5502 
   20900   -101756.85   -91808.221    241.62451    20721    226524.94   -37.749733   -25.087671     152.0446   -240.20613    434.65677     23.51159    22.166012    0.7092151    435.36598   -8.3975202   -3343.2737 
   21000   -101761.53   -91854.699     240.6093    20721    226438.73     19.23289    31.852948   -175.54104    201.38677    434.77735    23.503856    22.158721   0.64892326    435.42628    6.8932197   -3317.8586 
   21100   -101681.25   -91797.185    240.05652    20721    226255.33   -36.366901   -143.41622    106.68798   -72.372468    434.71736    23.495957    22.151274   0.67891777    435.39628   -12.055437   -3358.0642 
   21200   -101736.32   -91771.268    242.02341    20721    226343.33   -2.2005125   -57.614863    54.094779   -3.0814533    434.47992    23.506946    22.161634   0.79764153    435.27756    16.277095   -3413.5251 
   21300   -101686.07   -91765.553    240.94182    20721    226522.02    97.249652    -87.84529     117.4159    262.17834    434.44063    23.517286    22.171383   0.81728385    435.25792    21.397005   -3424.0664 
   21400   -101642.69   -91774.163    239.67908    20721    226383.97    7.8244245     58.45647   -140.33478    105.35159    434.59987    23.505812    22.160565   0.73766521    435.33753    14.280037    -3410.754 
   21500   -101579.46   -91708.313    239.74265    20721     226501.7    30.818154    72.952421    47.770667   -28.268625    434.95636    23.502286    22.157241   0.55941752    435.51578    5.6270313   -3468.2956 
   21600   -101739.87   -91672.907     244.4985    20721    226492.19    -13.94159   -208.75136    112.98461    53.941978    434.70051    23.508708    22.163295     0.687347    435.38785    13.199148    -3511.112 
   21700   -101696.85   -91699.236    242.81428    20721    226604.19   -16.595342   -110.90698     166.8378   -105.71685    434.68735    23.514876     22.16911   0.69392484    435.38128    2.3492552   -3471.2642 
   21800   -101685.69   -91693.954    242.67134    20721    226397.65    72.371647    127.30608   -278.21986    368.02873    434.61948    23.505992    22.160734   0.72785936    435.34734    3.0297844   -3487.7135 
   21900   -101639.63   -91680.799    241.87235    20721    226459.53    25.199852   -76.028834    77.727917    73.900474    434.65657    23.508201    22.162817    0.7093162    435.36588    22.181447   -3518.4622 
   22000   -101606.27   -91646.562    241.89346    20721    226496.29   -49.904971    0.8163749   -159.51007    8.9787795    434.73562    23.507971      22.1626   0.66978882    435.40541    7.8654186   -3531.9411 
   22100   -101691.72   -91637.435    244.19047    20721    226445.09   -93.059427    -195.5465   -123.98621    40.354423    434.55104    23.510306    22.164801   0.76208068    435.31312    10.999639   -3546.7962 
   22200   -101609.14   -91657.151    241.70603    20721    226625.87    83.077195    206.93879     317.9604   -275.66761     434.6369    23.517365    22.171457   0.71915229    435.35605    5.9998878   -3524.5274 
   22300   -101562.32   -91607.829    241.76673    20721    226551.19    141.23386    220.56931   -15.077135    218.20941    434.61321    23.514131    22.168408   0.73099699     435.3442    26.550433   -3601.3693 
   22400   -101531.82   -91585.864    241.55966    20721    226588.63   -93.353124   -60.395571   -56.103114   -163.56069    434.92758    23.507573    22.162225   0.57380989    435.50139   -5.3286319   -3580.8803 
   22500   -101670.23   -91637.868      243.658    20721    226494.85   -15.122142   -94.401443    -55.63674    104.67176    434.65165    23.510167     22.16467   0.71177285    435.36343   0.71263846   -3542.8073 
   22600    -101665.7   -91660.841    242.99012    20721    226528.35   -29.791666   -50.472906    236.11395   -275.01604    434.92955    23.504393    22.159227   0.57282619    435.50237    2.2911459   -3521.3692 
   22700   -101658.01   -91621.264    243.76449    20721    226511.52     18.83168    153.73976   -71.866425   -25.378295    434.52288    23.514516    22.168771   0.77615924    435.29904   -17.173119   -3545.9074 
   22800   -101613.35   -91567.474    243.98636    20721    226389.34   -25.991415    13.986472   -6.6672944   -85.293424    434.66301    23.504383    22.159218   0.70609531     435.3691   -44.245934   -3575.3283 
   22900   -101585.83   -91534.629    244.11568    20721     226503.3  -0.39059667    259.37862   -52.698318   -207.85209    434.91863    23.503388     22.15828   0.57828681    435.49691   -45.944794   -3604.5885 
   23000   -101546.73   -91540.313    243.02798    20721    226495.55    41.830579    18.100022   -22.439347    129.83106    434.68659    23.509258    22.163814   0.69430696    435.38089   -37.368097   -3610.0792 
   23100   -101569.05   -91493.132    244.71599    20721    226565.46   -47.729895   -65.810456   -220.32082    142.94159    434.80749    23.509617    22.164153   0.63385536    435.44134   -40.896261   -3648.6706 
   23200   -101624.16   -91543.589    244.82898    20721    226709.93   -32.451357    -80.28617   -98.451675    81.383773    434.43458    23.527203    22.180732   0.82031202    435.25489   -20.400419   -3618.1721 
   23300   -101474.54   -91539.535    241.29351    20721    226222.05    40.962352     75.57738    74.021299   -26.711623    434.41087    23.502515    22.157457   0.83216337    435.24304   -22.603022   -3638.5101 
   23400   -101534.92   -91512.601    243.41418    20721    226506.41   -38.730342   -77.929716   -162.66984    124.40853     434.4529    23.516144    22.170306   0.81115014    435.26405   -39.178183    -3638.234 
   23500   -101467.27   -91521.434    241.55659    20721    226321.72     58.54735    48.252476    61.823585     65.56599    434.43601    23.507012    22.161696   0.81959498    435.25561   -17.193625   -3659.9014 
   23600   -101619.67   -91548.588    244.59859    20721    226458.03    -12.99024   -36.308348   -5.9773515    3.3149798    434.49494    23.512495    22.166865   0.79013005    435.28507   -26.505308   -3622.2642 
   23700   -101554.93     -91536.7    243.31489    20721    226366.13   -10.549172    3.8641949    120.09638    -155.6081    434.73115    23.501336    22.156345   0.67202483    435.40318   -24.443124   -3639.2505 
   23800   -101544.37   -91523.963    243.36765    20721    226366.29     22.32442    227.32216   -51.405704   -108.94319    434.49288    23.507788    22.162428   0.79116031    435.28404   -31.451866   -3646.4368 
   23900   -101464.87   -91516.533    241.61742    20721    226364.54    96.280871    229.03126   -181.76043    241.57178    434.52461    23.506839    22.161533   0.77529658     435.2999   -44.285418   -3647.1279 
   24000   -101634.31   -91526.042    245.50165    20721    226231.63   -63.742621   -98.749556   -74.302721   -18.175585    434.06995    23.512241    22.166626    1.0026252    435.07257   -26.479687   -3653.0674 
   24100   -101556.46   -91496.265    244.33409    20721    226316.29   -28.809646     96.03697   -35.640653   -146.82525    434.22701    23.512386    22.166763   0.92409476    435.15111   -41.732553   -3666.5783 
   24200   -101438.88   -91473.295    242.03622    20721    226162.84   -18.513555    72.479418    73.716688   -201.73677    434.10244    23.507786    22.162426   0.98638104    435.08882   -38.053786   -3697.8777 
   24300   -101407.33    -91449.43    241.84969    20721    226134.02      23.4415   -56.923431   -69.535147    196.78308    433.82978    23.513673    22.167976    1.1227106    434.95249   -59.716544   -3704.6234 
   24400   -101469.02   -91422.317     244.0065    20721    226032.95    85.839452    136.38998    92.605921    28.522453     433.7153    23.511521    22.165947    1.1799516    434.89525   -56.764268   -3742.7841 
   24500   -101542.02   -91379.712    246.81412    20721    226112.38   -109.98026   -83.145239   -117.92341   -128.87213    433.94899    23.509319    22.163871    1.0631056    435.01209   -91.565803   -3740.6144 
   24600   -101377.13   -91386.427    242.64624    20721    226407.91    129.75145    379.83535    194.99974   -185.58074    433.89809    23.526057    22.179651    1.0885528    434.98665     -93.2539   -3734.2997 
   24700    -101440.3   -91355.669    244.92752    20721    226182.28   -69.497833   -195.69749   -332.80091     320.0049    433.81941    23.516464    22.170607    1.1278935    434.94731   -86.595598    -3772.289 
   24800   -101400.38   -91310.343    245.05897    20721    226079.66   -2.2037329     -76.2952   -282.29105    351.97505    433.76594    23.512577    22.166943    1.1546325    434.92057   -84.597652     -3826.23 
   24900   -101411.98   -91273.673    246.23114    20721    226230.98    16.854513     127.5907    16.871875   -93.899038    433.72636    23.521518    22.175372    1.1744185    434.90078   -95.737535   -3850.2447 
   25000    -101334.7   -91319.522    243.24069    20721    226180.32    103.69627    82.633145    198.58477    29.870898    433.84402    23.515695    22.169882    1.1155886    434.95961   -99.104969   -3805.9944 
   25100   -101375.38   -91333.403    243.89167    20721    226018.63    22.384647    6.6520768    171.61644   -111.11458    433.96867    23.503912    22.158773    1.0532653    435.02193   -118.98759   -3776.1257 
   25200   -101444.87   -91337.337    245.48372    20721    226018.01   -2.3025434    100.05354   -131.19856    24.237381     433.7346    23.510221    22.164721    1.1703001     434.9049   -95.720817   -3795.9175 
   25300   -101412.34    -91306.77    245.43608    20721    226102.95   -72.105736    -133.9378   -87.510109    5.1307027    433.99584    23.507559    22.162212    1.0396785    435.03552   -105.59039   -3811.5435 
   25400   -101361.26   -91252.736    245.50788    20721    226139.24    -48.03281    -19.81099   -349.69857    225.41113    434.01396    23.508955    22.163528     1.030622    435.04458   -111.72862   -3858.0471 
   25500   -101343.16   -91255.615    244.99829    20721    226054.36    73.328069    -68.83384    374.96284   -86.144791    433.97173    23.505687    22.160447    1.0517348    435.02347   -99.441479   -3880.0959 
   25600   -101325.93   -91226.933    245.27638    20721    226283.58   -82.100833   -51.771224   -184.73755   -9.7937289    434.02035    23.516284    22.170437    1.0274246    435.04778   -106.68743     -3886.75 
   25700   -101389.98   -91259.205    246.04837    20721     226283.4  -0.83756458   -249.56101   -12.862211    259.91053    433.86361    23.520522    22.174433    1.1057967     434.9694   -98.015903    -3868.154 
   25800    -101328.1   -91260.969     244.5025    20721    226269.43     117.4212    93.117459    3.0079635    256.13816    433.87799    23.519406    22.173381    1.0986068    434.97659   -102.43802   -3870.9405 
   25900   -101415.49    -91307.45    245.49609    20721    226141.59    70.826906   -74.101313    53.091124    233.49091    433.92573    23.511467    22.165897    1.0747363    435.00046   -83.042406   -3847.3841 
   26000   -101402.93   -91213.891    247.46336    20721    226257.78    -16.33107    48.727236    242.61389   -340.33434     433.9349    23.517258    22.171356    1.0701493    435.00505   -96.181456   -3921.2806 
   26100   -101373.08   -91210.034    246.83213    20721     226054.1   -93.487588    -102.8575   -195.38015    17.774884    433.69531    23.513163    22.167495    1.1899459    434.88525   -98.476134   -3925.7238 
   26200   -101386.91   -91249.266    246.21508    20721    226372.53   0.31471712    69.377132    -99.45049    31.017509    433.99622    23.521559    22.175411    1.0394915    435.03571   -92.767208   -3887.9521 
   26300   -101328.98   -91207.632    245.81937    20721    226136.98   -29.913475   -151.41004   -12.884678    74.554292    433.79801    23.514689    22.168934    1.1385975     434.9366   -108.41083   -3920.6081 
   26400   -101351.87   -91167.314    247.35456    20721    226356.58    39.817069    168.45552    81.010564   -130.01488    434.08443     23.51834    22.172376   0.99538514    435.07981   -102.47651   -3964.6327 
   26500   -101286.29   -91170.492    245.68457    20721    226324.91   -52.295256    24.635449    -106.1535   -75.367721    434.04872    23.517663    22.171737    1.0132419    435.06196   -83.715371   -3978.9612 
   26600   -101296.27   -91175.004    245.81737    20721    226322.87    42.433792   -35.649408    108.98202     53.96876     434.0204    23.518324    22.172361    1.0274008     435.0478   -80.565877   -3982.0959 
   26700   -101276.92    -91152.82     245.8861    20721    226269.26   -59.781216   -102.31277   -69.805347   -7.2255272    434.00277    23.516016    22.170185    1.0362174    435.03898    -110.6422    -3971.694 
   26800   -101353.65   -91141.855    248.01608    20721    226422.61   -7.6480097    178.34971   -23.755486   -177.53826    434.33363    23.515022    22.169248   0.87078253    435.20442   -107.70685   -3988.1536 
   26900   -101247.04   -91107.903    246.25138    20721     226362.7    81.227659    163.79948    133.08594    -53.20244     434.2108    23.515236    22.169449   0.93220001      435.143   -127.52496   -4008.3514 
   27000    -101325.1   -91141.998     247.3192    20721    226326.77   -9.6128687   -194.26436    89.043698    76.382056    434.12793    23.515613    22.169805   0.97363425    435.10157   -137.34684    -3962.273 
   27100   -101263.36   -91139.506     245.8802    20721    226450.39   -10.382644   -32.367195   -13.251349    14.470613    434.21404    23.519702     22.17366   0.93058096    435.14462   -123.06263   -3975.9691 
   27200   -101305.44   -91128.131    247.17844    20721    226345.17   -14.140749    65.600009    53.685013   -161.70727    434.09818    23.517375    22.171466   0.98851236    435.08669   -132.62118   -3980.8418 
   27300   -101261.86   -91152.104    245.53789    20721    226428.63    1.5776435   -9.9697123   -148.63491    163.33755    434.18657    23.519316    22.173296   0.94431263    435.13089    -125.0111   -3962.2817 
   27400   -101289.01   -91121.371    246.94359    20721    226321.86   -60.574941    131.56408   -167.22512   -146.06378    434.15102    23.514733    22.168975   0.96209092    435.11311   -137.54121   -3983.1255 
   27500   -101328.33   -91129.659    247.69742    20721    226358.67   -3.6036957   -20.930173    157.29318   -147.17409    434.29271    23.512809    22.167162   0.89124674    435.18395    -134.0996   -3981.3453 
   27600   -101302.24   -91125.674    247.16041    20721    226253.45    52.344512    154.47872    114.17412    -111.6193     433.9664     23.51618    22.170339    1.0544016     435.0208    -122.6016   -4003.6908 
   27700    -101266.8   -91124.076     246.3385    20721    226164.78   -41.510291   -52.077928   -41.533791   -30.919155    434.00385    23.510557    22.165038    1.0356755    435.03952   -152.38247   -3975.2483 
   27800   -101260.67   -91124.734    246.17364    20721    226059.15    68.029014     31.00512    85.518329    87.563593    433.75061    23.511926    22.166329    1.1622968     434.9129   -129.38337   -4003.7519 
   27900   -101272.69   -91125.255    246.45302    20721    226051.74    56.261335    84.175121    -13.08898    97.697862    433.61317    23.515267    22.169479    1.2310173    434.84418   -128.52361   -4004.9978 
   28000   -101197.56   -91099.613    245.25088    20721    226207.18   -38.832644    29.541428   -155.02168    8.9823184    433.83185    23.517421    22.171509    1.1216767    434.95352   -136.94581   -4014.6355 
   28100    -101161.4   -91015.811    246.40809    20721    226392.19    58.770689    206.92599    13.738458    -44.35238     434.1724    23.517807    22.171874   0.95139756     435.1238   -145.05617   -4089.7755 
   28200   -101233.81   -90983.491    248.95167    20721    226203.36   -59.001521   -11.748922   -12.561932   -152.69371    434.07103    23.510742    22.165213    1.0020865    435.07311    -176.0135   -4092.3136 
   28300   -101211.91   -91028.123    247.33569    20721     226278.6     100.5266    151.34976    143.14624    7.0837977    434.11508    23.513459    22.167774   0.98006011    435.09514   -159.78183   -4069.1005 
   28400   -101340.17   -91040.097    250.16015    20721    226214.51   -73.158637    151.53512   -31.830661   -339.18037     433.9388    23.514903    22.169136    1.0681979      435.007   -156.80429   -4056.8333 
   28500   -101195.33   -91021.802    247.08656    20721    226223.99    -17.77343   -44.622052    170.22212   -178.92036    434.22459    23.507656    22.162304   0.92530414     435.1499    -165.5381   -4069.8398 
   28600   -101298.39   -91000.595    250.10472    20721    226228.77    26.231643    81.645102    181.84239   -184.79256    434.00298    23.513906    22.168196    1.0361101    435.03909   -167.15794   -4092.4918 
   28700   -101135.22   -90928.732    247.88727    20721    226264.25   -10.219408    42.134883   -258.40114    185.60803    433.99082    23.516079    22.170245    1.0421903    435.03301   -149.68441   -4178.0695 
   28800   -101187.13   -90966.581    248.22875    20721    226199.72    28.046676  -0.53380516   -27.330929    112.00476    434.01641    23.512033     22.16643    1.0293969     435.0458   -162.19042   -4133.8532 
   28900   -101254.28   -90998.934    249.07374    20721    226226.89   -54.332302    72.612108    142.29679    -377.9058    434.36534    23.503998    22.158855   0.85493215    435.22027   -146.76818   -4113.1419 
   29000   -101200.13    -90993.68    247.88619    20721    226237.44   -12.131513   -73.303108    69.010128   -32.101558    434.11467    23.511331    22.165768   0.98026532    435.09493   -141.79731   -4124.0269 
   29100   -101190.43   -90970.416    248.21573    20721    226323.53    18.820831    51.647393   -333.38646    338.20156     434.1907    23.513745    22.168044   0.94225098    435.13295   -135.55856   -4155.5571 
   29200   -101137.95   -90958.045    247.24157    20721    226119.06    97.913876   -34.399558    5.1278962    323.01329    434.18507    23.503274    22.158172   0.94506507    435.13013    -141.3083   -4171.3348 
   29300   -101062.75   -90894.646    246.95497    20721    226179.98    33.986865    126.39769     258.9485    -283.3856    434.19208    23.506249    22.160977   0.94155906    435.13364   -151.13724   -4220.3604 
   29400   -101067.34   -90930.917    246.18557    20721    226350.57    33.765264   -95.321315    5.3807101     191.2364     434.0667    23.518508    22.172535    1.0042485    435.07095   -119.82128   -4212.3985 
   29500   -101095.12   -90915.613    247.23177    20721     226343.7    11.468611    4.6787959    126.01462   -96.287584    433.97857     23.52054     22.17445    1.0483165    435.02688   -127.12987   -4221.7473 
   29600    -101087.3   -90906.366    247.26639    20721    226219.22    58.674788    242.25876   -2.1920586   -64.042338    433.99789    23.513547    22.167858    1.0386532    435.03655   -152.58769   -4212.5598 
   29700    -101045.5   -90843.386    247.78084    20721    226098.25    28.833377   -26.526658   -71.069192    184.09598    433.80094    23.512595     22.16696    1.1371308    434.93807   -152.59615   -4277.5742 
   29800   -101055.06   -90820.435    248.57054    20721    226101.13    27.314034   -41.659251   -27.148214    150.74957    433.76342    23.513762     22.16806    1.1558921    434.91931   -145.87304   -4308.3738 
   29900    -101025.6   -90828.384    247.66206    20721       225974    21.639126   -69.309894    38.953052    95.274219      433.703    23.508788    22.163371    1.1860987     434.8891   -143.23214   -4308.4159 
   30000   -101112.76   -90871.005    248.74379    20721    226085.55   -15.446854    3.5790074   -20.872701   -29.046868    433.58332    23.517835      22.1719    1.2459412    434.82926   -114.01793   -4291.1115 
   30100   -101157.76   -90879.373    249.63333    20721    226064.28   -46.004306   -204.53746    178.03993   -111.51538     433.8584    23.509272    22.163827    1.1083987     434.9668   -103.99404    -4293.202 
   30200   -101053.77   -90900.466    246.59537    20721    225931.76    39.986644    178.61942   -4.3385571   -54.320926    433.71271    23.506327    22.161051    1.1812446    434.89396   -109.45793   -4274.4083 
   30300   -101104.69   -90864.301    248.71045    20721    226022.55   -12.486547     25.27696    70.085167   -132.82177    433.87448    23.506667    22.161371    1.1003603    434.97484   -97.357149   -4321.5172 
   30400      -101173   -90910.191    249.25503    20721    225917.29   -31.277063    109.37253   -355.79854    152.59482    433.92549    23.499811    22.154907    1.0748537    435.00035   -100.10252   -4274.6491 
   30500   -101088.48    -90896.35    247.53839    20721    225901.48    53.124712    61.578352   -18.114486    115.91027    433.92553    23.498988    22.154131    1.0748362    435.00036   -85.769291   -4308.9814 
   30600   -101052.83   -90905.504     246.4503    20721    226002.63    51.436441    -81.58696     270.3152   -34.418916    434.11627    23.499084    22.154222   0.97946373    435.09574   -90.422623   -4292.2186 
   30700   -101107.14   -90886.824    248.22291    20721    225871.64   -9.2175044   -102.94552    148.43681   -73.143803    433.69324    23.503727      22.1586    1.1909808    434.88422   -116.81033   -4287.5475 
   30800   -101156.85   -90894.159    249.25219    20721    226086.17    41.827616    68.628156   -4.5353307    61.390023    433.93264    23.508399    22.163004    1.0712778    435.00392   -97.197207   -4297.6795 
   30900   -101055.35   -90863.705    247.52677    20721    226016.88    -32.95775   -33.366863   -66.656137    1.1497496    433.98487    23.503382    22.158274    1.0451628    435.03004   -109.83697   -4313.7345 
   31000   -101055.57   -90895.776     246.7532    20721    225980.76    17.913292   -283.16501    4.2674788    332.63741    433.88502    23.504208    22.159053    1.0950918    434.98011   -94.039542   -4302.2731 
   31100   -101084.63   -90883.943    247.74627    20721    225915.85   -140.76009    107.46218   -340.70376   -189.03869    433.67241    23.506592    22.161301    1.2013957     434.8738   -93.992055   -4310.2199 
   31200   -101144.49   -90914.582    248.45601    20721    225966.55   -83.154053     20.34263   -194.56995   -75.234845    433.84201    23.504634    22.159454    1.1165959     434.9586   -85.417079   -4292.4987 
   31300   -101079.06   -90901.846    247.17627    20721    225752.51   -71.519059   -8.5794161   -107.83584    -98.14192    433.70826    23.497121    22.152372    1.1834677    434.89173   -83.895734   -4314.3531 
   31400   -101018.02   -90839.297     247.2128    20721    225988.28   -17.702732   -66.993872    60.023741   -46.138066    433.74492    23.508395       22.163    1.1651415    434.91006   -102.90298   -4355.1507 
   31500    -101012.9   -90828.188    247.35833    20721    225883.84    63.310221    162.12078   -190.37894    218.18883    433.60584    23.506731    22.161431    1.2346784    434.84052   -100.84853   -4375.8328 
   31600   -101010.16   -90808.241    247.77625    20721    225959.73   -69.639623   -35.437981   -134.63083   -38.850057     433.5616    23.511879    22.166285    1.2568008     434.8184   -107.59527   -4382.4043 
   31700   -101074.53   -90848.765    248.35531    20721    225881.36   -37.549955    7.8891766   -131.95512    11.416078    433.57122     23.50754    22.162194    1.2519891    434.82321   -83.864868    -4371.188 
   31800   -101052.43   -90858.646    247.57873    20721    225772.68   -50.612314    186.95143    -186.4824   -152.30597    433.62621    23.500394    22.155457    1.2244957     434.8507   -88.077196   -4358.0636 
   31900   -101148.46   -90848.906    250.14741    20721    225715.53   -69.829418   -45.424858   -146.53192   -17.531474    433.47652    23.501477    22.156478    1.2993398    434.77586   -111.53623   -4348.2163 
   32000   -100990.85   -90828.353    246.81877    20721    225957.42    28.323174   -83.936739    157.69051    11.215749    433.56731    23.511604    22.166025    1.2539443    434.82126   -90.361092   -4387.3503 
   32100   -101014.72   -90814.253    247.74092    20721    225838.17    16.783214   -161.92003    84.702249    127.56742    433.54894    23.505897    22.160645    1.2631321    434.81207   -81.374372   -4414.5583 
   32200   -100944.13   -90785.842    246.71656    20721    225766.18   -41.053801     -259.221    159.78193   -23.722334    433.18317     23.51207    22.166465    1.4460153    434.62918   -93.421691   -4430.8764 
   32300   -100934.74   -90758.145    247.16101    20721    225789.56    9.5173079    41.855698   -72.928917    59.625143    433.43534    23.506446    22.161163     1.319928    434.75527   -114.51228   -4440.7488 
   32400   -101020.05   -90760.592    249.17365    20721    226010.74   -27.509714    168.32819   -148.37527   -102.48206    433.38308    23.519375    22.173352    1.3460614    434.72914   -99.156748   -4448.0117 
   32500   -100971.85    -90754.99    248.13915    20721    225897.55    34.029123   -20.866589    -17.21005    140.16401    433.40672    23.512844    22.167194     1.334239    434.74096   -84.703629   -4475.0889 
   32600   -100987.84    -90763.55    248.31939    20721    225883.55    -23.81936   -3.1499284   -113.17389    44.865739    433.21387    23.517348     22.17144    1.4306644    434.64454   -86.437215   -4465.4839 
   32700   -100979.67    -90795.97    247.33358    20721    225687.79   -44.736699   -97.016149    133.53562   -170.72957    433.06953    23.511072    22.165524    1.5028341    434.57237   -72.295174   -4450.7214 
   32800   -101062.61   -90808.398    249.04617    20721    225570.63  -0.94107316    55.420839    56.850218   -115.09428    433.16273     23.50244    22.157386    1.4562349    434.61897   -75.998566   -4443.0865 
   32900    -100954.3   -90785.132    246.98064    20721    225708.32   -25.941527    30.566392     68.74559   -177.13656    433.18283    23.509066    22.163633    1.4461827    434.62902   -104.08016    -4434.764 
   33000   -101029.74   -90783.897     248.8429    20721    225654.71    53.167909    180.35165    23.501212   -44.349139    433.19202    23.506025    22.160766    1.4415899    434.63361   -84.840711   -4461.6451 
   33100   -100946.13   -90781.292    246.87561    20721    225540.39    36.890577   -38.219701    201.69669   -52.805263    432.89167    23.508221    22.162836    1.5917672    434.48343   -89.063352   -4463.1989 
   33200   -100996.29   -90792.448     247.8229    20721     225678.6    19.786156   -30.903298    165.14508   -74.883319    433.03481    23.511536    22.165961    1.5201956      434.555   -98.230809   -4439.6674 
   33300   -101020.29   -90787.744    248.52014    20721    225642.88    18.168452    39.222313    107.15174   -91.868702    433.08323    23.508361    22.162968    1.4959841    434.57922   -69.958363   -4473.4084 
   33400   -101014.18    -90739.88    249.53409    20721    225535.23   -4.9089371   -2.0770749    38.780151   -51.429888    432.86745    23.508609    22.163202    1.6038734    434.47133   -111.81607    -4483.389 
   33500   -100956.87   -90726.301    248.47204    20721    225659.09   -12.206968   -92.972203    56.448643 -0.097344416    432.77143    23.517672    22.171747    1.6518836    434.42332   -109.21362   -4498.9758 
[...]
  491800   -96241.302   -84473.255    285.81306    20721    221257.98   -162.82136   -222.89247   -290.76665     25.19504    424.23102    23.520442    22.174357    5.9220876    430.15311    5796.1548   -23890.466 
  491900   -96107.063   -84446.193    283.21003    20721    221365.03    86.366003    68.323786   -13.344181     204.1184    424.45148    23.520021     22.17396    5.8118621    430.26334    5800.6901   -23931.167 
  492000   -96046.272    -84404.68    282.74182    20721    221573.41    58.913625   -124.17447    56.418594    244.49675    424.89222    23.518881    22.172886    5.5914907    430.48371    5801.9338   -23966.223 
  492100   -96029.395   -84313.374    284.54949    20721    221652.06    8.9484059    31.436794    45.109291   -49.700867    424.64694    23.529847    22.183224    5.7141293    430.36107    5778.8959    -24032.61 
  492200   -95997.024   -84405.002    281.53791    20721    221499.91    9.8597774    163.94982    192.58014   -326.95062     424.7664    23.518462    22.172491    5.6544009     430.4208    5804.1949   -23971.428 
  492300   -95987.024   -84357.173    282.45669    20721    221590.17    52.191955    137.13632   -213.19254    232.63209    424.80845    23.522089     22.17591     5.633374    430.44183    5787.7055   -23999.784 
  492400   -96016.687   -84394.094    282.28039    20721    221487.98   -4.2498504   -62.530866   -344.71941    394.50072    424.85281    23.515437    22.169639    5.6111969      430.464      5800.45   -23979.509 
  492500   -96099.613   -84383.217    284.55861    20721    221456.21   -13.271234    53.738045   -79.467562   -14.084186     424.8766    23.513092    22.167428    5.5992996     430.4759    5795.2663   -23987.884 
  492600   -95957.819   -84401.584    280.66873    20721    221311.58    98.406234     180.8541    86.048935    28.315669    424.84108    23.506395    22.161115    5.6170578    430.45814    5810.8995   -23994.687 
  492700    -96123.81   -84382.712    285.15856    20721    221526.47    39.627986   -43.739524    140.55722    22.066265    424.64567    23.523215    22.176972    5.7147655    430.36043    5812.2319   -24009.348 
  492800   -96018.709   -84355.032    283.27822    20721    221285.94   -86.704515   -39.650727    139.28343   -359.74624    424.49952    23.514488    22.168744    5.7878409    430.28736    5815.1077    -24042.44 
  492900   -95889.165   -84333.239    280.66123    20721    221417.41     143.3316    86.480521   -156.08504    499.59931    424.21254    23.529427    22.182828    5.9313304    430.14387    5796.0253   -24051.257 
  493000   -95908.686    -84308.18    281.74396    20721    221558.36     68.10943   -65.146954    113.66478    155.81047    424.14275    23.538851    22.191713    5.9662244    430.10898    5806.4119   -24082.584 
  493100   -95822.115   -84266.728    280.64817    20721    221544.44    46.573379    128.14517    126.04761   -114.47264    424.22434    23.535848    22.188882    5.9254308    430.14977    5809.2072   -24124.594 
  493200   -95972.033   -84298.376     283.5206    20721    221774.03    58.144997    146.11818     32.21666   -3.8998465    424.31526    23.545517    22.197998    5.8799681    430.19523    5818.7654   -24096.523 
  493300   -95971.873    -84294.56    283.60937    20721     221578.9   -56.658874   -103.97061   -103.21649    37.210482    424.29316    23.535769    22.188808    5.8910177    430.18418    5803.1789   -24088.455 
  493400   -95950.868   -84304.351    282.86144    20721    221536.04    92.750863    208.31821    81.824517   -11.890135     424.3467    23.532009    22.185262    5.8642518    430.21095    5815.1492   -24100.543 
  493500   -95820.776   -84311.129    279.53725    20721    221451.44    58.507268    177.32879   -189.68781    187.88083    424.30606    23.528642    22.182088    5.8845708    430.19063    5808.2703   -24087.018 
  493600     -95933.8   -84297.973     282.6018    20721    221279.97    43.433519   -8.0027898    50.909734    87.393613    424.23635    23.521463     22.17532     5.919426    430.15577    5793.5106   -24095.433 
  493700   -95972.149   -84288.351    283.76689    20721    221560.38   -109.26866    3.7637754   -269.90482    -61.66492    424.49044    23.529316    22.182724    5.7923804    430.28282    5811.3119   -24107.121 
  493800   -95938.325    -84292.85    282.83613    20721    221443.54    53.824637   -178.67961    119.31271    220.84081    424.40935    23.525359    22.178993    5.8329262    430.24227    5819.9195   -24122.999 
  493900   -95902.605    -84288.46     282.0752    20721    221399.89   -28.532863    -100.8704    -17.45074    32.722555    424.47446    23.521235    22.175106    5.8003679    430.27483    5820.0977   -24126.731 
  494000   -96019.049   -84277.333    285.17356    20721    221752.58    -31.76631   -156.58878    51.735195    9.5546512    424.48444    23.539686    22.192501    5.7953823    430.27982    5814.0643   -24122.388 
  494100   -95920.175   -84285.122      282.583    20721    221802.31   -15.339058    149.51094   -185.48922   -10.038901    424.49029    23.542163    22.194836     5.792454    430.28275    5794.0658   -24093.567 
  494200   -96018.383   -84288.862    284.87736    20721     221892.3    11.945134    52.369989   -58.755333    42.220746    424.84622    23.537073    22.190037    5.6144919    430.46071    5805.1298    -24101.51 
  494300   -95852.979    -84284.82    280.95835    20721    221995.57   -10.128504    46.298964   -64.541053   -12.143425      425.001    23.538262    22.191158    5.5370997     430.5381    5797.8381    -24094.13 
  494400   -95890.569   -84281.794    281.94478    20721    222083.45   -39.002565    54.613238   -72.214319   -99.406614    424.80864     23.54825    22.200575    5.6332784    430.44192    5822.9557   -24119.031 
  494500   -95994.459   -84354.227    282.70879    20721    221744.58   -47.355686   -175.18017   -162.82931    195.94242    424.85466    23.529003    22.182429    5.6102677    430.46493     5852.482   -24090.281 
  494600   -95834.196   -84270.659     280.8461    20721    222134.29    131.14356    143.67131    199.94392    49.815455    425.19146    23.540341    22.193118    5.4418706    430.63333    5823.5998   -24140.569 
  494700   -95986.432    -84307.21    283.65575    20721    221701.83    91.252689    8.0077352    155.87256    109.87777    425.28323    23.514878    22.169112    5.3959848    430.67922    5834.5942   -24131.588 
  494800    -95977.77   -84313.952    283.28163    20721    222228.25   -57.609299    130.78669   -359.86101    56.246417    425.40705    23.539352    22.192185    5.3340738    430.74113    5847.2455   -24112.956 
  494900   -95908.802   -84310.273    281.69594    20721    222134.63    51.121215   -75.503673    333.51979   -104.65247    425.48055    23.532361    22.185594    5.2973254    430.77787    5848.2154   -24128.164 
  495000   -95993.053    -84313.58    283.66186    20721    222058.92    59.977234     69.28044   -158.50157    269.15283    425.45215    23.529135    22.182553    5.3115245    430.76368    5856.4153    -24136.58 
  495100   -95934.102   -84308.953    282.34248    20721    222145.19    71.407259    236.32109   -142.55848    120.45917    425.90094    23.521303    22.175169     5.087129    430.98807    5852.5526   -24134.079 
  495200   -95902.684   -84302.285    281.74136    20721    222176.25   -19.705223    134.02107    -203.0067    9.8699637    425.78782    23.526072    22.179665    5.1436913    430.93151    5850.7672   -24136.836 
  495300   -96032.433   -84315.283    284.57692    20721     222145.9   -41.029883   -96.292875   -225.65448    198.85771    425.96893    23.519463    22.173435    5.0531353    431.02206    5861.3449   -24137.631 
  495400   -96019.106   -84354.448    283.30203    20721    222442.33   -9.0019733   -118.03283   -86.027619    177.05453     426.0874    23.531878    22.185139    4.9938987     431.0813    5874.3907   -24103.564 
  495500   -96006.317   -84343.341    283.26117    20721    222296.12   -27.224344    -129.8013   -207.53303     255.6613    425.49361    23.540552    22.193317    5.2907974     430.7844    5879.7028    -24125.75 
  495600   -95955.696   -84309.766    282.84717    20721    222169.54   -55.236808   -66.672768    136.20289   -235.24055    425.45717    23.534856    22.187947    5.3090164    430.76618    5875.3289   -24159.789 
  495700   -96034.959   -84308.294    284.80803    20721    222140.74   -13.397779    93.433517   -152.32762    18.700767    425.65348    23.527903    22.181392    5.2108581    430.86434    5855.8987     -24145.6 
  495800   -96047.265   -84353.429     284.0107    20721    221575.81     -140.945    53.611363   -74.700377   -401.74598    425.23952    23.509402    22.163949    5.4178382    430.65736    5878.6988   -24137.968 
  495900   -96040.397   -84382.155    283.14621    20721    221748.82    71.696057    247.89465    77.237308   -110.04379    425.42924    23.513334    22.167656    5.3229796    430.75222    5879.8229   -24115.535 
  496000   -96046.814   -84367.095    283.66783    20721     222148.2    74.327921    66.230514   -203.81683    360.57008      425.904    23.521378     22.17524    5.0855995     430.9896    5884.8556   -24125.234 
  496100   -96050.764   -84364.675    283.82256    20721    221795.38   -85.844853     140.9109   -21.438129   -377.00733    425.79223    23.505776    22.160531    5.1414856    430.93371     5906.291   -24157.359 
  496200   -96117.998   -84397.156    284.66659    20721    221914.06   -21.141986    56.661641   -17.240879   -102.84672    425.61476    23.516966     22.17108    5.2302212    430.84498    5915.6203   -24134.032 
  496300   -96184.257   -84402.008      286.158    20721    221899.29    -78.15607   -257.23182    76.832267    -54.06866    425.51455    23.518952    22.172953    5.2803253    430.79487    5917.4578    -24129.34 
  496400   -96042.509   -84407.574    282.58015    20721     221764.5    41.829703    210.92883    165.41862   -250.85835     425.7107     23.50639     22.16111    5.1822521    430.89295    5938.9749     -24157.3 
  496500    -96037.44   -84400.214     282.6358    20721    221871.76   -43.448245    135.85332   -67.808066   -198.38999    425.64081    23.514004    22.168289    5.2171974      430.858    5934.0441     -24153.4 
  496600   -95996.197   -84398.102     281.6854    20721    222170.88    17.312061    215.91366    306.79468   -470.77215    425.84644    23.524168     22.17787    5.1143824    430.96082    5943.8638   -24160.094 
  496700   -96045.371   -84441.433    281.82731    20721     221913.9    4.4131541    364.68833   -181.41857    -170.0303    425.98443    23.506751     22.16145    5.0453836    431.02982    5943.2253   -24126.023 
  496800   -96082.837   -84441.241    282.74191    20721    221825.05    29.117339    231.76295    124.58488   -268.99582    425.93572    23.503388     22.15828      5.06974    431.00546    5943.3834   -24132.728 
  496900   -95972.998   -84444.018     280.0068    20721    221626.59   -43.451726     7.372199    77.175556   -214.90293    425.97783    23.491711    22.147271    5.0486838    431.02652    5956.9435   -24149.258 
  497000    -96101.13   -84449.996    282.97357    20721    221988.06   0.31700279   -72.117175    180.99713   -107.92895    425.92884    23.512213    22.166599    5.0731788    431.00202      5954.37   -24132.679 
  497100   -95918.979   -84428.743    279.06582    20721    222193.06    120.55033    -84.29759    266.77091    179.17767    426.06844    23.519213    22.173199    5.0033801    431.07182    5950.8384    -24148.58 
  497200   -95955.446   -84446.397    279.52274    20721    221903.63    73.259326    76.998833    340.63728   -197.85814    425.95989    23.506884    22.161576    5.0576569    431.01754    5966.7507   -24156.707 
  497300   -95989.863   -84385.102     281.8473    20721    221830.44    140.48245    226.95639    21.650173    172.84079    425.67463    23.510881    22.165344    5.2002855    430.87491    5937.6889   -24196.883 
  497400   -95972.418   -84412.859    280.74947    20721     221521.5    28.449522    104.85457   -165.91746    146.41146    425.35351     23.50337    22.158263    5.3608454    430.71435    5958.9832   -24195.379 
  497500   -95963.086   -84359.147    281.82735    20721    221614.24   -64.200725   -48.367698   -10.919142   -133.31534    425.27096    23.510571    22.165052    5.4021202    430.67308     5942.641   -24228.218 
  497600   -96062.174   -84431.754    282.47051    20721    221761.52   -7.6879954   -113.18395    108.35236   -18.232394    425.30318    23.517491    22.171576    5.3860113    430.68919    5962.6184   -24176.964 
  497700   -96057.113    -84425.99    282.48758    20721    221756.16   -23.742283  0.035472692   -216.29487    145.03255    425.09925    23.522847    22.176625    5.4879757    430.58722    5931.6929   -24151.426 
  497800    -96016.03   -84392.227    282.30978    20721    221610.78    3.5602504    133.04849    -159.5641    37.196363    425.06606    23.516054     22.17022    5.5045702    430.57063    5949.3227   -24210.027 
  497900   -95915.695   -84403.936    279.58853    20721    221723.38    41.146859   -88.850703    97.463761    114.82752    425.17964    23.518885     22.17289    5.4477802    430.62742     5947.733   -24195.938 
  498000   -96024.176   -84396.648    282.40025    20721    221594.99     15.43008     246.9015   -22.771621   -177.83964    425.04766    23.515725    22.169911    5.5137709    430.56143    5976.2742   -24238.383 
  498100   -95986.798   -84347.592    282.68387    20721    221742.92    180.36359    192.16178    393.44025   -44.511251    425.44901    23.512475    22.166846    5.3130965     430.7621    5960.9426   -24276.008 
  498200   -95974.576   -84282.198    283.97528    20721    222013.22    -4.892369   -82.333537    141.66058   -74.004149    425.39709    23.528236    22.181706    5.3390534    430.73615    5936.6787   -24299.473 
  498300   -95914.283   -84280.239     282.5585    20721    222180.07    -84.40435   -158.42807   -187.12568    92.340701    425.68455    23.529128    22.182546    5.1953264    430.87987    5944.8415   -24302.803 
  498400   -96003.935   -84252.915    285.39951    20721    221897.38   -91.474458    81.749357   -60.520251   -295.65248    425.40386     23.52191    22.175742     5.335669    430.73953    5932.1422    -24327.46 
  498500   -95889.397   -84269.682    282.21049    20721    221869.49   -17.963382   -31.011534    149.07078   -171.94939    425.20283    23.525992     22.17959    5.4361857    430.63901    5934.2349   -24318.885 
  498600    -95883.49   -84288.095    281.61983    20721    221801.32    35.103974   -142.64647    225.36789    22.590503    425.10787    23.525004    22.178659    5.4836652    430.59153    5936.7407   -24308.496 
  498700   -95824.969   -84317.594    279.48208    20721     221794.2    90.027758    22.974913    11.469351    235.63901     425.0065    23.527431    22.180947     5.534349    430.54085    5951.1655   -24298.216 
  498800   -96012.262   -84322.026    283.92325    20721    221690.43    117.16197    141.61785     12.31285    197.55521    425.10708    23.519145    22.173135    5.4840617    430.59114    5949.4271   -24299.421 
  498900   -95834.259   -84296.038    280.23124    20721    221917.24   -7.0958445   -77.340564    206.28841   -150.23538     425.3062    23.525663     22.17928    5.3844983     430.6907    5938.3765   -24300.763 
  499000   -96019.192   -84281.937    285.06522    20721    221869.56    24.361946     193.9434   -129.62126    8.7636954    424.89024    23.534648     22.18775    5.5924825    430.48272    5928.5492   -24313.745 
  499100   -95960.248   -84276.025    283.77723    20721    221824.16    21.736811   -194.86813    240.45695    19.621621    425.01663     23.52874    22.182181     5.529286    430.54591    5924.4311   -24314.918 
  499200    -95884.89   -84285.536    281.71596    20721    221929.45    81.927659   -5.4382324    292.01151   -40.790305    424.77014    23.541151    22.193882    5.6525307    430.42267    5942.2822   -24322.888 
  499300   -95873.874   -84263.625    281.98061    20721    221759.91   -21.580078    84.511959   -37.347677   -111.90452    425.04854    23.524449    22.178136    5.5133316    430.56187    5940.2306   -24344.771 
  499400   -95876.371   -84301.608    281.11874    20721    221682.26    22.216922    111.81431   -212.90691    167.74337    425.06154    23.519971    22.173914    5.5068296    430.56837    5941.4335   -24315.836 
  499500   -96003.597   -84330.426     283.5088    20721    221487.23    59.178112   -9.0245045    10.823017    175.73582    425.05864    23.509703    22.164233    5.5082791    430.56692    5957.7928   -24315.593 
  499600   -95843.887   -84294.252    280.50845    20721    221640.25    137.27273    127.38834    14.006464    270.42339    424.86703    23.523125    22.176887    5.6040853    430.47111    5956.5865   -24348.914 
  499700   -95921.919   -84340.803    281.27303    20721    221871.14    46.054385   -263.59662    36.184438    365.57533    425.01707    23.531219    22.184518    5.5290638    430.54614    5949.1598     -24282.5 
  499800   -96066.996   -84277.452    286.33517    20721    221826.46   -171.20818   -401.19294    -286.8818    174.45018    424.82446    23.534183    22.187313    5.6253683    430.44983    5947.0452   -24339.058 
  499900   -95969.799    -84304.11    283.32709    20721    221932.51    3.1089871    61.291248    68.975036   -120.93932    424.84333    23.539285    22.192123    5.6159328    430.45927     5944.522   -24315.936 
  500000   -95958.514   -84304.724     283.0381    20721    221862.46    51.519789    109.99478   -116.61041      161.175    424.54532    23.543829    22.196406    5.7649391    430.31026    5957.5506   -24335.333 
Loop time of 71102 on 32 procs for 500000 steps with 20721 atoms

Performance: 1.215 ns/day, 19.751 hours/ns, 7.032 timesteps/s
97.3% CPU use with 32 MPI tasks x no OpenMP threads

MPI task timing breakdown:
Section |  min time  |  avg time  |  max time  |%varavg| %total
---------------------------------------------------------------
Pair    | 12979      | 14159      | 16669      |1035.2 | 19.91
Bond    | 0.75508    | 0.87354    | 1.1073     |   8.6 |  0.00
Kspace  | 12966      | 15481      | 16662      | 991.7 | 21.77
Neigh   | 10678      | 13163      | 15406      |1789.7 | 18.51
Comm    | 575.39     | 1899       | 4425.3     |2863.2 |  2.67
Output  | 7.8666     | 34.74      | 45.569     | 229.4 |  0.05
Modify  | 24934      | 26280      | 29614      |1035.3 | 36.96
Other   |            | 84.27      |            |       |  0.12

Nlocal:    647.531 ave 692 max 607 min
Histogram: 3 2 4 7 6 0 0 1 6 3
Nghost:    7483.69 ave 7807 max 7141 min
Histogram: 1 5 3 3 7 3 0 1 3 6
Neighs:    237408 ave 266763 max 216085 min
Histogram: 4 4 10 4 0 0 0 0 6 4
FullNghs:  474813 ave 534886 max 433233 min
Histogram: 4 6 8 4 0 0 0 1 5 4

Total # of neighbors = 15194007
Ave neighs/atom = 733.266
Ave special neighs/atom = 2
Neighbor list builds = 500000
Dangerous builds not checked
write_data production.R1
PPPM initialization ...
  extracting TIP4P info from pair style
WARNING: Using 12-bit tables for long-range coulomb (../kspace.cpp:316)
  G vector (1/distance) = 0.345822
  grid = 400 48 48
  stencil order = 5
  estimated absolute RMS force accuracy = 0.000403609
  estimated relative force accuracy = 1.21546e-06
  using double precision FFTs
  3d grid and FFT values/proc = 67260 38400
write_restart restartproduction.R1
PPPM initialization ...
  extracting TIP4P info from pair style
WARNING: Using 12-bit tables for long-range coulomb (../kspace.cpp:316)
  G vector (1/distance) = 0.345822
  grid = 400 48 48
  stencil order = 5
  estimated absolute RMS force accuracy = 0.000403609
  estimated relative force accuracy = 1.21546e-06
  using double precision FFTs
  3d grid and FFT values/proc = 67260 38400
Total wall time: 19:45:02
