LAMMPS (30 Jul 2016)
# Sets up LAMMPS simulation for transient melting of ice: TIP4P/Ice
# Ensure cold thermostats do not move
# Thinbox: 16x1x1
# Defects
# Order param l=2

#### setting MD parameters ####
units real
boundary p p p
atom_style full

# read ice box in restart file
#read_data ice-ih-restart.data
read_restart restart.state
  orthogonal box = (0.499043 0.026929 0.0253879) to (435.576 23.5043 22.1591)
  32 by 1 by 1 MPI processor grid
  20736 atoms
  13824 bonds
  6912 angles
  2 = max # of 1-2 neighbors
  1 = max # of 1-3 neighbors
  1 = max # of 1-4 neighbors
  2 = max # of special neighbors

#replicate 16 boxes, 16x1x1


#### force field definition ####
pair_style      lj/cut/tip4p/long 2 1 1 1 0.1577 10.0
pair_modify	tail yes

kspace_style	pppm/tip4p 1.0e-6

bond_style	harmonic
angle_style	harmonic
dihedral_style	none
improper_style	none

bond_coeff	1 450.0 0.9572
angle_coeff	1 55.0 104.52


# reset pair coeff
pair_coeff	* * 0.0 0.0

#OO
pair_coeff	2 2 0.21085 3.1668
#OH
pair_coeff	* 1 0.0000 0.0000

neighbor        2.0 bin
neigh_modify    every 1 delay 1 check no

timestep	2.0
fix		constraints all shake 0.000001 20 0 b 1 a 1
  0 = # of size 2 clusters
  0 = # of size 3 clusters
  0 = # of size 4 clusters
  6912 = # of frozen angles

group water type 1 2
20736 atoms in group water

#*********** SIMULATION PARAMETER TO ADJUST ****************
#Box dimensions
variable lx equal lx
variable ly equal ly
variable lz equal lz

### Temperature of the hot and cold regions ####
variable thi equal 375
variable tlo equal 215
variable runpressure equal 0.986923
# Configuration equilibrated in density and temperature

# Define dx here

variable lx equal lx
variable ly equal ly
variable lz equal lz

variable xlo equal xlo
variable xhi equal xhi


variable dx equal 2.0

### ADD IN DEFECTS AT THE CENTRE OF THE HOT THERMOSTAT ###
variable x1 equal ${lx}/4.0
variable x1 equal 435.077114398014/4.0
variable y1 equal ${ly}/2.0
variable y1 equal 23.4773419683631/2.0
variable z1 equal ${lz}/2.0
variable z1 equal 22.133724285084/2.0

region kill1 sphere ${x1} ${y1} ${z1} 3
region kill1 sphere 108.769278599503 ${y1} ${z1} 3
region kill1 sphere 108.769278599503 11.7386709841815 ${z1} 3
region kill1 sphere 108.769278599503 11.7386709841815 11.066862142542 3
delete_atoms region kill1 compress no bond yes mol yes
Deleted 15 atoms, new total = 20721
Deleted 10 bonds, new total = 13814
Deleted 5 angles, new total = 6907




variable thip equal ${thi}*2.0/3.0
variable thip equal 375*2.0/3.0
variable tlop equal ${tlo}*2.0/3.0
variable tlop equal 215*2.0/3.0
variable cbl equal ${lx}*3.0/4.0-${dx}
variable cbl equal 435.077114398014*3.0/4.0-${dx}
variable cbl equal 435.077114398014*3.0/4.0-2
variable cbh equal ${lx}*3.0/4.0+${dx}
variable cbh equal 435.077114398014*3.0/4.0+${dx}
variable cbh equal 435.077114398014*3.0/4.0+2
variable hbl equal ${lx}*1.0/4.0-${dx}
variable hbl equal 435.077114398014*1.0/4.0-${dx}
variable hbl equal 435.077114398014*1.0/4.0-2
variable hbh equal ${lx}*1.0/4.0+${dx}
variable hbh equal 435.077114398014*1.0/4.0+${dx}
variable hbh equal 435.077114398014*1.0/4.0+2


#***************************************************
## EQUILIBRATION PERIOD - to reach the steady state ###
#run 0

#reset the timestep to start your production run
reset_timestep 0

# define a group to perform averages
#group s1 type 1
###*** SYSTEM THERMOSTATTING: HOT and COLD regions ***###

fix NVE all nve
fix PRESS all press/berendsen aniso ${runpressure} ${runpressure} 500000 couple yz
fix PRESS all press/berendsen aniso 0.986923 ${runpressure} 500000 couple yz
fix PRESS all press/berendsen aniso 0.986923 0.986923 500000 couple yz


### Apply THERMOSTATS ###

#set up the "hot region" in the middle of the box
region hot block ${hbl} ${hbh} 0 ${ly} 0 ${lz} units box
region hot block 106.769278599503 ${hbh} 0 ${ly} 0 ${lz} units box
region hot block 106.769278599503 110.769278599503 0 ${ly} 0 ${lz} units box
region hot block 106.769278599503 110.769278599503 0 23.4773419683631 0 ${lz} units box
region hot block 106.769278599503 110.769278599503 0 23.4773419683631 0 22.133724285084 units box


#set up the "cold region" at the left end of the box
region cold block ${cbl} ${cbh} 0 ${ly} 0 ${lz} units box
region cold block 324.30783579851 ${cbh} 0 ${ly} 0 ${lz} units box
region cold block 324.30783579851 328.30783579851 0 ${ly} 0 ${lz} units box
region cold block 324.30783579851 328.30783579851 0 23.4773419683631 0 ${lz} units box
region cold block 324.30783579851 328.30783579851 0 23.4773419683631 0 22.133724285084 units box

#set up the "cold region" at the right end of the box
#region cold2 block ${h2bl} ${xhi} 0 ${ly} 0 ${lz} units box


#Cold regions  unification
#region cold union 2 cold1 cold2 units box

#Create group of cold molecules
####group cool_ice region cold
####group cool_ice include molecule

####compute cold_temp cool_ice temp
####fix cold_rescale water temp/rescale 1 ${tlo} ${tlo} 0.0001 1.0
####fix_modify cold_rescale temp cold_temp

#this calculates the temperature using only the atoms in the "hot region"
#compute hot_temp all temp/region hot

# calculate the temperature using only WATER in the "hot region"
compute hot_temp water temp/region hot

#this calculates the temperature using only WATER in the "cold region"
compute cold_temp water temp/region cold


#set up a basic velocity rescale for the hot region WATER with thip
fix hot_rescale water temp/rescale 1 ${thip} ${thip} 1.0 1.0
fix hot_rescale water temp/rescale 1 250 ${thip} 1.0 1.0
fix hot_rescale water temp/rescale 1 250 250 1.0 1.0
#change the thermostat to only act on the "hot region"
#this is done by passing it the "hot temp" compute that we defined above
fix_modify hot_rescale temp hot_temp

#set up a basic velocity rescale for the cold region
fix cold_rescale water temp/rescale 1 ${tlop} ${tlop} 1.0 1.0
fix cold_rescale water temp/rescale 1 143.333333333333 ${tlop} 1.0 1.0
fix cold_rescale water temp/rescale 1 143.333333333333 143.333333333333 1.0 1.0
#change the thermostat to only act on the "cold region"
#this is done by passing it the "cold temp" compute that we defined above
fix_modify cold_rescale temp cold_temp

### Ensure MOMENTUM CONSERVATION ###

#ensure that linear momentum is conserved despite the "thermostatting" by velocity rescaling
fix cons_mom all momentum 1 linear 1 1 1


thermo 100
thermo_style custom step pe etotal temp atoms vol press pxx pyy pzz lx ly lz xlo xhi f_cold_rescale f_hot_rescale

group ox type 2
6907 atoms in group ox
group hy type 1
13814 atoms in group hy
compute KE all ke/atom
variable TEMP atom c_KE*4186.8/(1.3806488*6.02214129)

compute cc1 all chunk/atom bin/1d x center 2 units box
#fix TPROFILE all ave/chunk 1 500 500 cc1 v_TEMP density/number file temp.dat
fix TPROFILEox ox ave/chunk 1 500 500 cc1 v_TEMP density/number file temp-ox.dat
fix TPROFILEhy hy ave/chunk 1 500 500 cc1 v_TEMP density/number file temp-hy.dat

compute orderparam ox orientorder/atom degrees 1 2 nnn 4 cutoff 3.5
compute cc2 ox chunk/atom bin/1d x center 2 units box
#fix ORDERPARAM all ave/chunk 1 500 500 cc2 c_orderparam[1] file order-param.dat
fix ORDERPARAM all ave/chunk 1 500 500 cc2 c_orderparam[1] file order-param.dat

restart 50000 config.restart

run 500000
PPPM initialization ...
  extracting TIP4P info from pair style
WARNING: Using 12-bit tables for long-range coulomb (../kspace.cpp:316)
  G vector (1/distance) = 0.345619
  grid = 405 48 48
  stencil order = 5
  estimated absolute RMS force accuracy = 0.000405585
  estimated relative force accuracy = 1.22141e-06
  using double precision FFTs
  3d grid and FFT values/proc = 67260 38880
Neighbor list info ...
  2 neighbor list requests
  update every 1 steps, delay 1 steps, check no
  max neighbors/atom: 2000, page size: 100000
  master list distance cutoff = 12.3154
  ghost atom cutoff = 12.3154
  binsize = 6.1577 -> bins = 71 4 4
Memory usage per processor = 12.7931 Mbytes
Step PotEng TotEng Temp Atoms Volume Press Pxx Pyy Pzz Lx Ly Lz Xlo Xhi cold_res hot_resc 
       0   -103751.95   -94862.264    215.90569    20721    226083.91    174.30049    290.02459    50.980848    181.89605    435.07711    23.477342    22.133724    0.4990428    435.57616            0            0 
     100   -103597.21   -94569.069    219.26833    20721    226419.46   -44.505888   -82.958081   -273.16061    222.60103    435.31621    23.488305     22.14406    0.3794953     435.6957   -18.797164   -258.68194 
     200   -103570.77   -94556.661    218.92753    20721    226439.46   -34.601929   -40.171662    30.278041   -93.912167    435.24155    23.491356    22.146936   0.41682276    435.65838    3.4364025   -295.39279 
     300   -103586.86   -94499.255    220.71256    20721    226414.97   -17.693421    34.995888   -75.558173   -12.517979    435.32816    23.487749    22.143536   0.37351828    435.70168    15.534649   -368.31595 
     400   -103423.69   -94434.073    218.33282    20721    226523.46     51.60461    181.61171   -122.29132    95.493436    435.19043    23.497093    22.152345   0.44238351    435.63282   -2.8387802   -413.46495 
     500   -103366.94   -94367.968    218.55997    20721    226441.17    117.21431    19.296387    272.66931    59.677232    435.36986    23.487984    22.143757    0.3526714    435.72253   -9.3556358   -479.37586 
     600   -103458.78     -94333.4    221.62994    20721    226419.15    2.0900694    106.42951   -25.488694    -74.67061    435.14166    23.492999    22.148486   0.46677211    435.60843   -7.6382192   -513.00373 
     700   -103426.02    -94303.09    221.57059    20721    226478.61   -2.7891937    12.705844    290.67534   -311.74877    435.00721    23.499715    22.154816    0.5339965     435.5412   -24.847577   -527.40311 
     800   -103315.95   -94266.007    219.79799    20721    226583.13     43.34179    325.81096   -78.935055   -116.85054    435.30987    23.496964    22.152223   0.38266714    435.69253   -30.001773   -558.99896 
     900   -103370.64    -94251.29    221.48361    20721    226410.05    -33.59253   -111.96899   -91.438478    102.62988    435.18349    23.491398    22.146976   0.44585746    435.62934   -13.884518   -592.04412 
    1000   -103374.74   -94249.581    221.62456    20721    226405.63    21.264879     86.16451   -113.64196    91.272092     435.0486     23.49481    22.150193   0.51330184     435.5619   -7.4486875   -604.26471 
    1100   -103380.03   -94215.231    222.58744    20721    226541.06   -69.900449   -78.127732   -127.04591   -4.5277029    435.12591    23.499748    22.154848   0.47464652    435.60055    4.1373473   -641.98534 
    1200   -103334.38   -94173.442    222.49376    20721    226402.26    18.715359   -100.21947    77.184715    79.180833    435.11514    23.492839    22.148334   0.48003113    435.59517    2.2554655   -691.76868 
    1300   -103342.43   -94141.717    223.45955    20721    226515.55    66.584825    189.32607    -6.848047    17.276453    435.35156    23.492334    22.147858   0.36181872    435.71338    9.6413773   -730.57688 
    1400   -103358.76   -94122.495    224.32304    20721     226532.6   -31.158621   -173.45137    28.567129    51.408379    435.29137    23.494843    22.150224   0.39191726    435.68328    23.757227   -760.02894 
    1500    -103339.4   -94107.808    224.20959    20721    226325.55   -49.548919    174.69955   -172.38038   -150.96594    434.97964    23.492517     22.14803   0.54777847    435.52742    17.277548   -774.70984 
    1600   -103306.15   -94082.107    224.02628    20721    226549.22   -104.91874   -109.42403   -189.86339   -15.468795     435.1755    23.498832    22.153985    0.4498509    435.62535    26.565248   -800.98521 
    1700   -103248.74   -94071.895    222.87991    20721    226468.28    8.6440887   -96.771553   -139.60649    262.31031    435.38336    23.489025    22.144739   0.34592121    435.72928    40.404022   -833.02447 
    1800   -103239.58   -94045.354    223.30214    20721    226499.56    34.096696    46.961046     48.47665    6.8523909    435.18216    23.496077    22.151387   0.44651826    435.62868    27.679845   -849.77496 
    1900   -103201.19   -94042.295    222.44404    20721    226332.41   -64.195687    94.861723    48.107245   -335.55603    435.28392     23.48466    22.140623    0.3956387    435.67956    43.218191   -867.89531 
    2000   -103291.82   -94033.126    224.86777    20721    226526.56    17.482155    119.81766    8.8790226   -76.250215    435.27872    23.494871     22.15025   0.39823839    435.67696    15.773558   -849.16942 
    2100   -103288.74   -94015.355    225.22471    20721    226427.02   -56.748644   -77.718066    223.34161   -315.86947     435.2774    23.489744    22.145417   0.39890055     435.6763    28.311528   -881.88839 
    2200   -103294.02   -93967.772     226.5086    20721    226549.51    -36.41658    76.784802    106.14595   -292.18049    435.25103    23.496808    22.152077   0.41208717    435.66311    8.7973433   -907.21291 
    2300   -103248.85    -93927.03    226.40095    20721    226642.84   -32.983498   -31.217325    72.941263   -140.67443    435.38057    23.498151    22.153342   0.34731435    435.72789    17.187504   -953.90592 
    2400   -103142.86   -93899.299    224.50042    20721    226481.44     21.61523    -66.54915    59.862333    71.532508    435.33558    23.490996    22.146597   0.36980906    435.70539   -1.7988838   -969.22976 
    2500   -103236.63   -93871.051    227.46382    20721    226523.06   -57.778293   -62.580359   -131.95694    21.202418    435.30175    23.494068    22.149493   0.38672724    435.68847    3.1017523   -1000.3824 
    2600   -103154.42   -93877.181    225.31841    20721    226574.93    23.467413   -41.543799    208.33218   -96.386141    435.22743    23.498763     22.15392   0.42388331    435.65132    4.2893944    -998.8038 
    2700   -103133.06   -93820.518    226.17558    20721     226586.3    25.105774    214.74414   -389.28468    249.85786    435.32096    23.496829    22.152096   0.37712025    435.69808   -9.6406782   -1039.8613 
    2800   -103153.46    -93835.78    226.30039    20721    226545.08   -18.122604    52.503433    -486.1846    379.31336    435.40023    23.492552    22.148064   0.33748358    435.73772    12.994766   -1047.1436 
    2900   -103073.82   -93805.322    225.10591    20721     226600.2    8.7126276   -160.70502   -131.15905    318.00195    435.31617    23.497679    22.152897   0.37951742    435.69568    21.886089   -1086.8175 
    3000    -103089.2   -93779.333    226.11065    20721    226628.89    54.277389    214.78696    47.600653    -99.55545    435.43665    23.495915    22.151234   0.31927552    435.75592  0.030247143   -1094.9212 
    3100    -102986.1   -93799.441    223.11827    20721    226578.09   -6.2600382    182.85888   -146.94807   -54.690927    435.33463    23.496034    22.151346   0.37028257    435.70492    19.393358   -1092.1159 
    3200   -103084.28    -93774.81     226.1012    20721    226750.29    25.851158   -54.254165    316.48729   -184.67965    435.43072    23.502367    22.157317   0.32224025    435.75296    28.050422   -1123.1658 
    3300   -103033.59   -93717.672    226.25767    20721     226537.1    26.461719    65.977562    174.28059   -160.87299    435.45854    23.490566    22.146192   0.30833193    435.76687    10.294487   -1170.2666 
    3400   -103104.69   -93745.802     227.3013    20721    226723.11    36.574593   -9.6684864   -60.098453    179.49072    435.32217    23.503888    22.158751   0.37651405    435.69869     12.35162   -1140.9831 
    3500   -103118.05   -93722.093    228.20165    20721    226725.34   -78.106016   -139.59812    137.88723   -232.60716    435.39202    23.502119    22.157083   0.34158876    435.73361   -10.467943    -1137.782 
    3600   -103052.24    -93704.35    227.03426    20721     226624.7     66.36697   -21.059328    19.516856    200.64338     435.5319    23.493128    22.148607   0.27164802    435.80355   -6.1754967   -1170.3469 
    3700   -103071.63   -93647.075    228.89612    20721    226536.09   -8.7245342   -65.196647     37.66654    1.3565038    435.46043    23.490462    22.146094   0.30738337    435.76782    10.290205   -1245.1572 
    3800   -103092.47   -93669.545    228.85669    20721    226602.14    44.887118   -35.985247    276.22286   -105.57627    435.20582    23.500758      22.1558   0.43468873    435.64051    32.711838   -1247.3073 
    3900   -103044.62   -93652.058    228.11911    20721    226592.65    35.671632    129.59107    120.38558   -142.96175    435.54613    23.491084    22.146679   0.26453583    435.81066    44.537384   -1275.7542 
    4000   -103074.88   -93646.882     228.9798    20721    226670.41   -78.456014   -60.889247   -3.8892336   -170.58956    435.64543    23.492436    22.147954   0.21488724    435.86031    39.522696   -1268.3569 
    4100   -102996.77    -93598.26    228.26353    20721    226605.08    43.619545     171.6075   -82.589644    41.840782    435.22565    23.500375     22.15544   0.42477617    435.65042      31.9607   -1319.1902 
    4200   -103077.13   -93632.293    229.38889    20721    226690.56   -55.284333   -110.26888   -1.9252101   -53.658913    435.48513    23.497804    22.153015    0.2950373    435.78016    26.710328   -1274.1168 
    4300   -102985.49   -93612.707    227.63871    20721    226525.46     54.61978    23.193198     77.43393    63.232211    435.19849    23.496979    22.152238   0.43835336    435.63685    15.494956   -1293.7648 
    4400   -103066.43   -93601.775    229.87016    20721       226704    13.746773    96.848034    126.82946   -182.43717    435.58867    23.495707    22.151038   0.24326318    435.83194    29.460553   -1313.2953 
    4500   -102958.62   -93604.819    227.17771    20721    226627.17   -37.792248   -226.13767   -80.750722    193.51165    435.50801    23.493901    22.149336   0.28359649     435.7916    31.239411   -1312.2239 
    4600   -102986.07   -93625.397    227.34478    20721    226657.54    13.694734    100.94071    79.632547   -139.48905    435.49054    23.495946    22.151264   0.29233194    435.78287    37.060073    -1299.028 
    4700   -103107.11   -93634.685    230.05883    20721    226824.09   -22.423458    22.095533   -109.40276    20.036853    435.55931    23.502722    22.157651   0.25794426    435.81726    32.984342   -1281.6549 
    4800   -102994.47   -93574.702    228.78001    20721    226736.73     31.34556    5.0483014    119.77213    -30.78375    435.55692    23.498259    22.153444   0.25914022    435.81606    15.456299    -1329.839 
    4900   -102994.11   -93534.697    229.74275    20721    226768.73    72.489445    45.824681    187.15603   -15.512379    435.48738    23.501794    22.156777    0.2939093    435.78129    14.367408   -1370.4256 
    5000   -102980.65   -93522.763    229.70576    20721    226848.47   -36.794862    43.146227   -193.30255    39.771738    435.35383    23.509531    22.164071   0.36068735    435.71451    24.547558   -1385.0395 
    5100   -103032.14   -93536.889    230.61319    20721     227021.8     -44.7688    22.853346   -41.314822   -115.84492    435.57414    23.512562    22.166929   0.25053155    435.82467    17.143953   -1361.7023 
    5200    -102950.8   -93514.681    229.17701    20721    226784.31   -16.030054   -87.012209   -84.848499    123.77055    435.48534    23.502656     22.15759   0.29493162    435.78027    38.801239   -1412.3852 
    5300   -103033.71   -93548.296    230.37428    20721    226584.12    21.093161    101.54953     131.8408   -170.11085     435.4105      23.4943    22.149711   0.33234866    435.74285    45.270062   -1394.6005 
    5400   -102951.97   -93504.816    229.44509    20721    226707.75    104.03694    326.97604   -59.331047    44.465822    435.50987    23.498027    22.153226    0.2826671    435.79253    50.565841   -1444.0721 
    5500    -102959.8   -93450.074    230.96486    20721    226714.27   -35.888387   -4.0792418    148.93522   -252.52114     435.3811     23.50184     22.15682   0.34705233    435.72815    42.436749     -1485.78 
    5600   -102853.58   -93428.211    228.91601    20721     226568.3    28.153644      136.096   -16.530505    -35.10456    435.24799    23.497865    22.153072   0.41360442     435.6616    50.364103   -1523.6526 
    5700   -102837.31   -93420.878    228.69899    20721    226657.38   -11.411196   -68.182928    5.6538102    28.295529    435.47008     23.49649    22.151776   0.30255807    435.77264    39.423386   -1516.2784 
    5800   -102932.04   -93435.509    230.64434    20721    226727.28    87.376508    115.79998   -77.541706    223.87125    435.39249    23.502207    22.157166   0.34135562    435.73384    40.489086   -1506.2484 
    5900   -102928.92   -93433.826    230.60944    20721    226698.77   -63.622455   -143.11675    25.238054   -72.988665    435.44345    23.499354    22.154476   0.31587726    435.75932    44.730795   -1508.1159 
    6000   -102887.25    -93406.51    230.26082    20721    226694.56   -48.094329   -83.370831    220.09731   -281.00946    435.36435     23.50127    22.156283   0.35542554    435.71977     61.15678   -1552.2179 
    6100   -102834.93   -93435.834    228.27775    20721    226727.59    53.209018   -143.06949    44.664593    258.03195    435.41585    23.501592    22.156586   0.32967576    435.74552    66.969637   -1534.3144 
    6200    -102898.9    -93408.34    230.49934    20721    226715.03   -40.577439    -193.5636    -231.3841    303.21539    435.56735    23.496854     22.15212   0.25392686    435.82127    38.818694   -1530.7764 
    6300   -102807.77   -93378.785    229.00384    20721    226629.51    44.403154  -0.88947375    65.515536      68.5834    435.35841    23.498058    22.153255   0.35839607     435.7168    41.435035   -1570.3093 
    6400   -102880.14   -93419.249    229.77877    20721    226399.33   -56.894748   -129.68859    121.16641   -162.16206    435.36306    23.485997    22.141884   0.35606943    435.71913    69.055726   -1559.3122 
    6500   -102977.11   -93402.968     232.5291    20721    226821.31   -3.2149903    64.864921   -51.316098   -23.193795    435.65915    23.499884    22.154976   0.20802263    435.86718    68.926957   -1568.2582 
    6600   -102909.65   -93406.852     230.7964    20721    226601.54   -2.4521509    102.99649   -129.53884    19.185897    435.46952     23.49361    22.149062   0.30283958    435.77236    71.005783    -1574.198 
    6700   -102814.84   -93432.126    227.87998    20721    226662.92     26.26357   -2.3817019    277.05338   -195.88097     435.1499     23.50542    22.160195   0.46264876    435.61255    76.145791   -1553.6516 
    6800   -102843.77   -93374.517    229.98181    20721    226855.63   -42.097517   -21.105227   -301.46376    196.27644    435.69006    23.500828    22.155866   0.19256855    435.88263    71.686244   -1599.8595 
    6900   -102876.55   -93389.935    230.40337    20721    226857.33   -16.333069   -88.262131    170.86426   -131.60134    435.49966    23.506053    22.160792    0.2877701    435.78743    83.028011   -1598.7478 
    7000    -102894.1   -93373.294    231.23388    20721    226891.95   -32.845517    157.55968   -30.431049   -225.66518    435.45028     23.50918     22.16374   0.31246213    435.76274     70.79251   -1601.6326 
    7100   -102869.78    -93345.22    231.32512    20721    226812.68   -35.266249    101.84584   -205.80125    -1.843328    435.42182    23.505841    22.160592    0.3266912    435.74851    67.141981   -1628.9237 
    7200    -102868.2   -93296.924    232.45954    20721    226796.65   -1.9180714   -205.83774    397.72403    -197.6405      435.469    23.503737    22.158608   0.30309761     435.7721    46.161863   -1658.1038 
    7300   -102823.36   -93323.241    230.73141    20721    226884.73    -25.42082    20.609155   -171.88479    75.013174    435.42515    23.509484    22.164027   0.32502369    435.75018    67.974217   -1650.4851 
    7400   -102880.86   -93334.117    231.86388    20721    226752.08   -21.402279    41.762599   -188.73003    82.760594    435.41027    23.503012    22.157925   0.33246631    435.74273    82.074755    -1659.097 
    7500   -102755.51   -93289.856    229.89443    20721    226889.47   -9.4787341   -63.113601    78.688009   -44.010611    435.39288    23.510601     22.16508   0.34115815    435.73404    85.951231   -1704.6365 
    7600   -102826.68   -93285.989    231.71671    20721    226914.83    34.125487    64.043418    211.87069   -173.53764    435.61184    23.506005    22.160747    0.2316807    435.84352     93.61099   -1721.7686 
    7700    -102840.7   -93271.085    232.41919    20721    226716.58    -36.77989   -91.206609    20.335298    -39.46836    435.46439    23.499712    22.154814   0.30540595    435.76979    123.24363    -1768.446 
    7800   -102830.25   -93282.357    231.89167    20721    226904.65    44.302691    39.863344    128.84703   -35.802302    435.43438    23.510267    22.164765   0.32041178    435.75479    110.17913   -1741.4213 
    7900    -102845.9   -93275.623    232.43531    20721    226667.33   -7.7312327   -25.879024   -214.69832    217.38364    435.49027    23.496461    22.151749   0.29246711    435.78273    119.70461   -1765.1184 
    8000   -102835.75   -93256.845    232.64489    20721    226824.42   -35.956306   -87.364556   -122.99134    102.48697    435.47541    23.505003    22.159802   0.29989749     435.7753    103.88528   -1763.6602 
    8100   -102786.04   -93251.067    231.57793    20721    226804.75   -7.3848767   -146.41393   -112.59064    236.84994    435.60187    23.500572    22.155624    0.2366663    435.83853    108.86201   -1776.9971 
    8200   -102764.56   -93224.814    231.69378    20721    226757.31    6.4330012    -89.14972   -75.937061    184.38579    435.47589    23.501512    22.156511   0.29965418    435.77555    109.60345   -1806.1401 
    8300   -102771.34   -93234.168    231.63131    20721     226802.7    18.934836    41.158357   -35.898611    51.544761    435.43765    23.504896    22.159702   0.31877286    435.75643    114.95317   -1802.8527 
    8400   -102822.77   -93206.966    233.54119    20721    226891.89   -82.548594   -139.27558   -37.165876   -71.204332    435.67348    23.503154    22.158059   0.20086003    435.87434    100.26805   -1809.0501 
    8500    -102757.1   -93242.816    231.07556    20721    226664.59    115.14435    12.187377    179.06677     154.1789      435.392     23.49897    22.154115   0.34159977     435.7336    111.60944   -1799.9097 
    8600   -102829.44   -93204.168    233.77103    20721    226831.97    -25.46521   -81.915163   -311.89384    317.41338     435.4375    23.506417    22.161135   0.31885123    435.75635    102.95536   -1820.4141 
    8700    -102777.6    -93149.51    233.83943    20721    226711.08    45.191654    140.84732   -147.58528    142.31292    435.35667    23.502333    22.157285   0.35926382    435.71594    80.067342   -1858.1367 
    8800      -102819   -93154.694    234.71915    20721    226790.42   -135.58132   -144.14767     1.312571   -263.90886    435.34026    23.506889     22.16158   0.36746876    435.70773    88.828195   -1852.8607 
    8900      -102771   -93164.453    233.31626    20721    226681.84   -34.573916  -0.40029088   -101.95048    -1.370973    435.35191    23.500946    22.155978   0.36164357    435.71356    89.355802   -1852.2769 
    9000   -102748.64   -93127.059    233.68137    20721    226810.09   -65.988173   -125.38554    -113.2984    40.719422    435.27019      23.5098    22.164325   0.40250637    435.67269    59.474953   -1856.5373 
    9100   -102744.41   -93140.346    233.25588    20721    226845.32   -20.905959   -18.538117    59.352222   -103.53198     435.4916    23.505649    22.160411   0.29180191     435.7834    71.730306   -1857.6957 
    9200    -102724.5    -93134.47    232.91517    20721    226824.23    37.709372  -0.34689929   -63.470112    176.94513    435.31689    23.509272    22.163827   0.37915419    435.69605    74.292491   -1870.7746 
    9300   -102683.79   -93106.446    232.60712    20721     226877.4    21.494686   -22.171884   -12.339391    98.995334     435.5167    23.506633    22.161339   0.27924917    435.79595    69.106555   -1891.9944 
    9400   -102718.57   -93115.633    233.22861    20721    226805.46   -49.942772   -18.071973    77.020724   -208.77707    435.45553    23.504557    22.159381   0.30983366    435.76537    90.831242     -1902.85 
    9500   -102685.69   -93074.441    233.43038    20721    226783.49    62.974643   -21.974679    99.078643    111.81997    435.55745    23.500668    22.155716   0.25887587    435.81632    100.58927   -1960.6741 
    9600   -102686.46   -93099.069    232.85093    20721    226748.84   -2.4747925    352.27348   -227.06054   -132.63731    435.51934    23.499901    22.154992   0.27792872    435.79727    89.920384   -1924.4113 
    9700   -102622.73   -93074.218     231.9068    20721    226610.38    41.521442    69.713553    15.058391    39.792382    435.49008    23.493514    22.148971   0.29255827    435.78264    84.506798   -1951.7879 
    9800   -102603.86   -93018.387    232.80442    20721     226780.1   -11.701766     141.8831    109.05984   -286.04824    435.59125    23.499581     22.15469   0.24197448    435.83323    79.529085   -1995.3903 
    9900   -102672.33   -92985.052     235.2771    20721    226831.97   -45.719097   -150.80356   -163.96094    177.60721    435.50928     23.50448    22.159309   0.28296165    435.79224    82.784314   -2029.0734 
   10000   -102586.62    -93009.29    232.60658    20721    226761.48    82.329811    204.98522   -157.56925    199.57347    435.41546    23.503359    22.158252   0.32987147    435.74533    76.863357   -2007.0189 
   10100   -102703.57   -93010.922    235.40732    20721    226690.53   -52.638803   -106.45244    31.640246   -83.104219    435.55416     23.49594    22.151258   0.26051924    435.81468    85.287503   -2012.6557 
   10200   -102557.94   -92978.083    232.66803    20721    226721.35     53.65774    175.72524   -57.115914    42.363898    435.44893    23.500376     22.15544   0.31313539    435.76206    98.182366   -2063.1119 
   10300   -102704.73   -92988.442    235.98162    20721    226876.43   -16.218972   -9.0544433    109.97863    -149.5811     435.4739    23.507738     22.16238   0.30064915    435.77455    68.079493   -2017.3264 
   10400   -102670.11   -92982.579    235.28318    20721    226736.68   -83.744663    19.245933    27.783387   -298.26331    435.36702    23.503381    22.158273   0.35409074    435.72111    71.390457   -2028.4069 
   10500   -102630.57   -92962.198    234.81793    20721    226672.43    20.691682    119.40633    85.141976   -142.47326     435.4008    23.499139    22.154274   0.33719917      435.738    72.280466   -2058.3242 
   10600   -102602.77   -92928.799    234.95384    20721    226750.69    25.758018     59.87607    -25.18575    42.583735    435.13828    23.510284    22.164781   0.46846011    435.60674    32.164262   -2050.6261 
   10700   -102665.78   -92918.647    236.73066    20721    226744.64   -39.025341   -57.996571   -220.68558    161.60613    435.30224    23.505543    22.160311   0.38648209    435.68872    46.507932   -2073.7059 
   10800   -102584.76    -92863.83    236.09434    20721    226601.92    43.753204   -88.906768   -17.781527    237.94791    435.25141    23.499516    22.154629   0.41189277    435.66331    42.256472   -2131.8872 
   10900   -102585.66    -92853.22    236.37395    20721    226864.62   -54.133486    33.159824   -164.61151   -30.948775    435.43643    23.508137    22.162757   0.31938302    435.75582    52.422517   -2142.6889 
   11000   -102565.94   -92847.488      236.034    20721    226783.26    77.997022   -120.09994     160.9865    193.10451    435.35499     23.50612    22.160855   0.36010303     435.7151    44.538579   -2151.0579 
   11100   -102579.06   -92801.166    237.47769    20721     226737.3  -0.42060881    82.532053     60.75238   -144.54626    435.28393    23.505657    22.160419    0.3956371    435.67956    31.680919   -2182.4103 
   11200   -102519.74   -92770.439    236.78327    20721    226592.22     30.46051    15.210002     149.2163   -73.044772    435.15303    23.501669    22.156659   0.46108273    435.61412    21.577582    -2209.269 
   11300   -102506.05   -92716.678    237.75648    20721    226927.28   -59.996906    41.907021    6.0852415   -227.98298    435.72783    23.503521    22.158405    0.1736844    435.90152    35.196718   -2264.6469 
   11400   -102545.38   -92766.313    237.50627    20721    226626.11   0.59602272   -9.8225732   -334.29211    345.90275    435.39132    23.496994    22.152252   0.34193786    435.73326    56.388104   -2249.8248 
   11500   -102498.91   -92742.748    236.94996    20721    226633.98    10.857194    18.249121    4.8576533    9.4648085    435.21351    23.502201    22.157161   0.43084583    435.64435    35.725429   -2251.8387 
   11600   -102540.78   -92709.031    238.78583    20721    226835.72   -44.797706   -51.538654   -152.45585    69.601389    435.42355    23.506988    22.161673   0.32582298    435.74938    33.438389   -2278.4515 
   11700   -102472.02   -92709.205    237.11164    20721    226631.46    57.863159   -193.33218    53.342055     313.5796    435.04419    23.506644    22.161349     0.515503     435.5597    39.847504   -2295.3703 
   11800   -102486.28    -92719.12    237.21705    20721    226829.91   -17.039042   -157.51561   -3.8521265    110.25061    435.56012    23.503001    22.157915   0.25753859    435.81766    53.497981   -2290.7991 
   11900   -102432.78    -92688.19    236.66894    20721     226814.2    -15.29471    64.904415    6.9099747   -117.69852    435.40842    23.506281    22.161007    0.3333877    435.74181    58.674637   -2328.3009 
   12000   -102448.16   -92637.207    238.28063    20721    226774.98    56.678801    229.52491   -93.334318    33.845815    435.33689    23.506179    22.160911   0.36915671    435.70604    66.018467    -2391.691 
   12100   -102383.25   -92649.971    236.39417    20721    226767.32   -22.955694    70.418932    192.99057   -332.27659    435.40148    23.504039    22.158894   0.33685872    435.73834     58.63857   -2370.3269 
   12200   -102486.21   -92638.056    239.18409    20721    226793.41    -1.181583   -81.528421    75.893477    2.0901953    435.27516    23.508802    22.163384   0.40002248    435.67518     51.85411   -2377.6755 
   12300   -102504.35   -92672.513    238.78786    20721    226866.29   -62.766169    10.978835   -270.51211    71.234771     435.4251     23.50853    22.163127    0.3250514    435.75015     63.51409   -2350.2698 
   12400   -102474.45   -92684.135    237.77946    20721    226709.46    83.781645   -122.64998  -0.50785525    374.50277    435.22195    23.505887    22.160636   0.42662652    435.64857    55.584408   -2343.5307 
   12500   -102386.37   -92634.742     236.8398    20721    226879.08   -13.343329   -62.639859   -80.332825     102.9427    435.44403    23.508681     22.16327   0.31558262    435.75962    61.026615   -2391.2061 
   12600    -102448.7    -92620.13    238.70854    20721    226966.59    4.8646558   -91.964846    214.74889   -108.19008    435.43582    23.513437    22.167753   0.31968884    435.75551    47.452883   -2389.8421 
   12700   -102306.31   -92618.011    235.30185    20721    226936.08    108.35984    88.617433    77.975022    158.48706     435.5736    23.508137    22.162757   0.25080198     435.8244    45.390734   -2397.0125 
   12800   -102407.33   -92609.048    237.97289    20721    226854.92   -25.383939   -196.99155    149.23593   -28.396199    435.29603    23.511426    22.165857   0.38958676    435.68561    37.811955   -2395.5874 
   12900   -102471.48    -92596.71    239.83072    20721     227106.9   -83.754609   -267.70251    -118.6248    135.06348    435.65526    23.514779    22.169019   0.20997178    435.86523    59.340382   -2421.0241 
   13000   -102428.13   -92581.664    239.14332    20721     226846.4   -50.160398    99.536882   -143.84346   -106.17462    435.64026    23.501694    22.156682   0.21747112    435.85773    48.743105   -2434.6765 
   13100   -102395.26    -92605.97    237.75448    20721    226886.96     19.00921    247.61871   -133.35297   -57.238117    435.66573    23.503107    22.158015   0.20473725    435.87046    52.217617   -2420.5609 
   13200   -102512.56   -92612.216    240.45173    20721    227010.83   -33.442569   -160.55995    5.2558121    54.976434    435.44609    23.515451    22.169652   0.31455691    435.76064    39.425689   -2394.5749 
   13300   -102474.98   -92618.909    239.37645    20721    226870.09   -4.6980793   -187.48749   -87.261559    260.65481    435.59187    23.504226     22.15907   0.24166608    435.83353    32.367081   -2388.2967 
   13400   -102434.67    -92585.13    239.21782    20721    226984.03   -113.22401   -112.64271   -167.89482   -59.134505    435.54798    23.511312     22.16575   0.26361247    435.81159    7.5826356   -2388.7425 
   13500   -102429.36   -92566.037    239.55253    20721    226831.19    15.811686    23.828518   -26.542337    50.148876    435.41548    23.506971    22.161657   0.32986221    435.74534    37.008366   -2449.0344 
   13600   -102307.81   -92576.157    236.35483    20721    226943.22    13.850286   -25.804883    28.596598    38.759142    435.47936    23.511051    22.165504   0.29791964    435.77728    52.027491   -2451.5629 
   13700   -102498.29   -92562.946    241.30192    20721     226859.6   -62.687499   -131.44371   -70.429014    13.810231    435.43462    23.507926    22.162558   0.32028959    435.75491    34.729095   -2447.7779 
   13800   -102523.28   -92552.347    242.16627    20721    226926.23   -104.75113   -209.38829    -58.32742   -46.537681    435.41521    23.511902    22.166306   0.32999359    435.74521     24.72558   -2446.1842 
   13900   -102387.65   -92565.759    238.54633    20721     226663.3    3.9471307   -31.957617    265.86757   -222.06856    435.29214    23.501599    22.156593    0.3915285    435.68367    27.648461   -2447.2025 
   14000   -102368.31   -92547.219    238.52705    20721    226773.79    20.645609    114.17347    55.778721   -108.01536    435.62014    23.498474    22.153647    0.2275297    435.84767    18.478281   -2458.0578 
   14100   -102355.04   -92547.252    238.20395    20721    226812.03    4.6205335   -4.4709065   -143.00492    161.33743    435.42369    23.505757    22.160513   0.32575341    435.74945    12.801803   -2450.5616 
   14200   -102351.88     -92474.2    239.90145    20721    226854.65   -60.745391   -245.39431   -162.44077     225.5989    435.57597    23.503855     22.15872   0.24961388    435.82559    30.810965   -2539.6832 
   14300   -102475.36   -92470.648    242.98663    20721    226924.47    16.256927    50.934684    185.73629    -187.9002    435.50081      23.5095    22.164042   0.28719395    435.78801    29.996018    -2545.048 
   14400   -102328.33   -92444.717    240.04544    20721     226848.5   -5.4877467    48.482672   -134.43563    69.489718    435.64348    23.501716    22.156703    0.2158604    435.85934    30.661381   -2571.5753 
   14500   -102306.84   -92444.879    239.51961    20721    226927.91    67.699906    1.7027099    -98.14485    299.54186    435.59749    23.507069     22.16175    0.2388539    435.83635    36.730231   -2581.1088 
   14600    -102246.3   -92436.267    238.25842    20721    226880.05    89.254148    187.03574   -53.037354    133.76406    435.52348    23.506587    22.161296   0.27585991    435.79934      32.4175   -2588.5498 
   14700      -102469   -92453.905    243.23874    20721    227031.63   -29.011302   -16.974994    23.004342   -93.063255    435.41218    23.517444    22.171531   0.33150896    435.74369    40.817475   -2572.3775 
   14800   -102296.15   -92453.682    239.04621    20721    227009.18   -53.791198    105.07215    -105.2387   -161.20705    435.76607     23.50673    22.161431   0.15456737    435.92063    47.544575   -2575.9381 
   14900   -102268.82   -92468.292    238.02755    20721    226900.81     48.27312    26.608078    163.01332   -44.802039    435.56165    23.506633    22.161339   0.25677447    435.81843    47.582531   -2572.1893 
   15000    -102271.9   -92451.135    238.51902    20721    226963.19    48.511567   -107.76499     82.87571    170.42398    435.53668    23.510537     22.16502   0.26925919    435.80594    33.887129   -2575.3561 
   15100   -102276.97   -92438.389     238.9516    20721    226904.59    73.242385    59.356661    43.141826    117.22867    435.47921    23.509053    22.163621   0.29799577     435.7772    32.231766   -2588.7271 
   15200   -102326.59    -92414.84    240.72884    20721    227009.85   -64.564953    4.8974271   -116.52219     -82.0701    435.49034    23.514205    22.168478    0.2924308    435.78277    37.842608    -2609.493 
   15300   -102339.54   -92378.647    241.92246    20721    226911.85   -3.6223935    -38.61483    84.061726   -56.314076    435.49737    23.508939    22.163513   0.28891665    435.78628    21.886572   -2639.1935 
   15400   -102320.42   -92405.086    240.81588    20721    226950.57   -119.55321   -186.60033   -62.313024   -109.74629    435.27739    23.516885    22.171004    0.3989067    435.67629    50.028662   -2632.8319 
   15500   -102211.15   -92443.456    237.23008    20721    226801.67    53.004231    187.52188    10.027667   -38.536849    435.54582    23.501924    22.156899   0.26468977    435.81051    38.412358   -2596.2057 
   15600   -102282.08   -92415.538    239.63089    20721    226965.05   -20.566875    -168.5499    20.978273    85.871004    435.48708    23.511973    22.166373   0.29406181    435.78114     55.28355   -2634.2983 
   15700   -102306.36   -92352.084    241.76163    20721    226899.03    24.183443   -82.273665   -122.02986    276.85385    435.42136    23.510327    22.164821   0.32691842    435.74828    24.796583   -2675.1186 
   15800   -102206.01   -92347.233     239.4422    20721    226934.22   -77.667784   -82.269496   -68.703637   -82.030219    435.38634    23.513095    22.167432   0.34443245    435.73077    31.615901   -2677.9661 
   15900   -102207.27   -92359.634    239.17176    20721    226908.17    54.207483    44.133889   -48.760689    167.24925    435.54908    23.507353    22.162018   0.26306232    435.81214    43.724356   -2687.5184 
   16000   -102282.29   -92357.044    241.05645    20721    226942.42     17.95222   -94.191631    11.143371    136.90492    435.32875    23.515076    22.169299   0.37322575    435.70197    41.403614    -2685.644 
   16100    -102208.8   -92318.117    240.21701    20721       226995    5.0736576   -99.484425    -110.8757    225.58109    435.51842    23.512678    22.167038   0.27838852    435.79681    9.0325137   -2691.9535 
   16200   -102238.36   -92339.678    240.41144    20721    226884.32    49.325719    198.34804    303.76246   -354.13334    435.47736    23.508053    22.162678   0.29891802    435.77628    9.3434956   -2677.6356 
   16300   -102226.32   -92325.546    240.46221    20721    227014.42    -94.75849   -218.98672   -104.08779    38.799033    435.33153     23.51873    22.172744    0.3718331    435.70337    9.8205622   -2681.2066 
   16400   -102316.28   -92326.031    242.63521    20721    226888.72   -78.256382     30.99098   -138.91573   -126.84439      435.349    23.511747     22.16616   0.36310083     435.7121   -8.2873257   -2668.6312 
   16500   -102204.98   -92384.349    238.51579    20721    226850.26     85.16009   -37.536979   -85.531008    378.54826     435.3477    23.509789    22.164314   0.36375194    435.71145    14.951398   -2642.0115 
   16600    -102288.2   -92354.314     241.2665    20721    227208.86    -59.14414   -35.137346    46.611422    -188.9065    435.45405     23.52549    22.179117   0.31057481    435.76463    11.065265   -2653.9631 
   16700   -102237.52   -92396.728    239.00549    20721    226891.16   -10.771478   -202.06267    292.28348   -122.53525    435.18512      23.5163    22.170452   0.44504003    435.63016    36.743038   -2648.4289 
   16800   -102326.75   -92401.573    241.05483    20721    226983.79   -60.065094    26.161098   -238.28446    31.928083    435.23414    23.519775    22.173728   0.42052789    435.65467    37.373918   -2642.0187 
   16900   -102271.79   -92342.001    241.16691    20721    226944.22   -29.116996   -205.25747    58.911317     58.99517    435.23527    23.517694    22.171767   0.41996485    435.65524    9.1881346   -2676.4779 
   17000   -102360.58   -92394.643    242.04492    20721    227092.14    -49.15432    45.343573   -182.84403   -9.9625047    435.16192     23.52734    22.180861   0.45664127    435.61856    16.117937   -2628.7065 
   17100    -102312.3   -92370.636    241.45527    20721     226925.5     16.23486   -45.681932    37.009337    57.377175    435.27966    23.515525    22.169722   0.39777146    435.67743    23.930385   -2669.1866 
   17200   -102235.05   -92376.689    239.43213    20721    226860.03    13.617135    147.68429   -89.113702   -17.719178    435.21987    23.513748    22.168046   0.42766718    435.64753    25.691264   -2665.1685 
   17300   -102246.38   -92391.657    239.34381    20721     226764.8    22.460077   -222.97571   -187.19241    477.54835    435.01548    23.514334    22.168599   0.52985981    435.54534    29.456674   -2659.4862 
   17400   -102199.96   -92370.612    238.72738    20721    226935.71    26.077754    126.69782    -71.38598    22.921428    435.11288     23.52056    22.174469   0.48116059    435.59404    37.096791   -2684.2431 
   17500   -102226.66   -92305.306    240.96196    20721    227045.07    47.217968   -44.851364    162.86378    23.641487    435.28949    23.521454    22.175312    0.3928554    435.68234    9.1951844   -2721.0593 
   17600   -102194.55   -92310.394    240.05859    20721    226770.66   0.94321945    77.499691    111.50164   -186.17167    435.25989    23.508035     22.16266   0.40765649    435.66754    2.3434759   -2715.2554 
   17700   -102177.78   -92269.389    240.64709    20721     226700.9    24.949863    42.667904   -34.919774    67.101459    435.10714    23.508544    22.163141   0.48403015    435.59117    2.1001735    -2761.164 
   17800   -102176.69   -92226.899    241.65282    20721    226730.54    -13.24852   -100.96004   -77.138213    138.35269    435.13329    23.509375    22.163924   0.47095481    435.60425    6.9435305   -2806.0847 
   17900   -102113.26   -92226.954    240.11076    20721    226887.93    15.896955    83.797083   -161.95571     125.8495    435.08681    23.518789    22.172799   0.49419605      435.581    30.047586   -2826.6952 
   18000    -102133.8   -92180.979    241.72632    20721    226828.79   -25.465763    52.186492   -347.09781    218.51402    435.29576    23.510079    22.164587   0.38971848    435.68548   0.93788977   -2845.2632 
   18100   -102138.34   -92150.798    242.56951    20721    226940.94    63.601389    59.068374   -113.51192    245.24771    435.34276    23.514621    22.168869   0.36622088    435.70898   0.43731559   -2876.1037 
   18200    -102127.5   -92120.568    243.04045    20721    226986.63    31.420551    4.7122449    81.087222    8.4621853     435.2478    23.519553    22.173519   0.41369963     435.6615    6.7220705   -2913.5971 
   18300   -102025.29   -92133.086    240.25417    20721     226803.8    62.543957    48.901241     124.1717    14.558929    435.18688    23.511724    22.166139   0.44416143    435.63104    2.2483621   -2900.6054 
   18400   -102085.19   -92118.481     242.0635    20721    226914.16   -31.758988   -82.162931    65.031689   -78.145722    435.16906    23.517926    22.171985   0.45306886    435.62213    2.4664356   -2910.8709 
   18500   -102013.37   -92056.964    241.81345    20721    226829.04     -54.6856    34.604793    47.992258   -246.65385    435.39891    23.507307    22.161974   0.33814526    435.73705   -12.268399    -2958.182 
   18600   -102150.67   -92106.374    243.94797    20721    226879.95    -40.16029   -111.81638    29.490895   -38.155383    435.11617    23.517582    22.171661   0.47951705    435.59568    1.1344114   -2924.7376 
   18700   -101991.08   -92065.679     241.0603    20721    226842.64   -70.846735   -15.168389    -243.4065    46.034689    435.10473    23.515957    22.170129   0.48523656    435.58996   -9.3351645    -2952.656 
   18800   -102056.71   -92102.574    241.75813    20721    226600.99    18.419023     64.48708   -100.81688    91.586874    434.92497    23.508285    22.162896   0.57511384    435.50009    9.4535771   -2949.5424 
   18900   -101993.39   -92055.392    241.36622    20721    226894.62    93.446703    112.83207     91.90369    75.604353    435.26125    23.514422    22.168682   0.40697721    435.66822    22.665721   -3006.4793 
   19000   -101948.08   -92011.661     241.3279    20721    226811.49    106.13302    51.388001    104.08447    162.92658     435.1582    23.512897    22.167245   0.45849772     435.6167   -10.880818   -3021.2969 
   19100   -101962.15   -91981.413    242.40424    20721     226849.2    11.797058   -152.08597   -47.293093    234.77024    435.06254    23.517437    22.171525   0.50632946    435.56887   -9.8694801   -3046.5945 
   19200   -102048.68   -92013.469    243.72721    20721     226813.3    15.414027    307.17353   -252.98041   -7.9510331    435.19504    23.511996    22.166395    0.4400782    435.63512   -6.2320547   -3021.9601 
   19300   -102010.18   -91979.997    243.60523    20721    226730.27   -68.498304    -211.7516   -83.391673    89.648363    435.05032    23.511602    22.166024   0.51244208    435.56276   -16.466177   -3045.3425 
   19400   -101877.32   -91942.447    241.29045    20721    226995.58    82.960652    132.13293    13.706939    103.04208    435.29331    23.518787    22.172797   0.39094521    435.68425   -8.9346811   -3089.5454 
   19500   -101958.23   -91957.038    242.90121    20721    226684.62   -88.693752   -206.16048    -68.18045    8.2596753    434.94826    23.511993    22.166392   0.56346896    435.51173    5.1927441   -3091.3007 
   19600   -101911.86   -91927.707    242.48715    20721    226930.41    77.367072   -3.2390902   -48.463973    283.80428    435.15039    23.519272    22.173255   0.46240746    435.61279   -6.9434692   -3112.6563 
   19700   -101877.59   -91916.681    241.92284    20721    226803.85   -30.180164    40.425138   -278.53188    147.56625    435.33708    23.507671    22.162317   0.36905934    435.70614   -2.7046618   -3125.9884 
   19800   -101969.08   -91921.524     244.0272    20721    226775.17   -31.623522   -223.13179     -6.06944    134.33066    435.04868    23.513974     22.16826   0.51325928    435.56194   -13.074667     -3112.32 
   19900   -101945.32   -91912.294    243.67417    20721    226896.92    13.037211    211.57943    63.129155   -235.59695    435.26945     23.51432    22.168586   0.40287447    435.67233   -30.731843   -3104.6477 
   20000   -101897.54   -91893.168    242.97832    20721    226645.46   -124.94044    42.548309   -135.94263   -281.42701    434.97258    23.509305    22.163858   0.55130911    435.52389   -46.912181   -3106.8334 
   20100   -101923.69   -91913.205     243.1268    20721    226717.18    29.213791    34.518527    -272.9572    326.08004    434.95694    23.513447    22.167763   0.55913041    435.51607   -29.986644    -3111.823 
   20200   -101885.52   -91908.603    242.31157    20721    226744.81    -79.39444   -130.29223   -171.22283    63.331736    434.93157    23.515565     22.16976   0.57181328    435.50339   -33.131858   -3108.7306 
   20300   -101889.63   -91894.098    242.76361    20721    226686.87    39.994976    45.503535    72.204297    2.2770983    435.00899    23.510468    22.164955   0.53310434     435.5421    -26.33674   -3139.1341 
   20400   -101967.48   -91911.423    244.23356    20721    226641.49   0.57023586    88.202377    137.00381   -223.49547    434.82462    23.513098    22.167434   0.62529077    435.44991   -15.367863    -3133.227 
   20500   -101827.75   -91861.659    242.04848    20721    226593.74   -11.192907   -24.031432   -377.80766    368.26037    434.77373    23.511998    22.166397   0.65073734    435.42446   -17.452143   -3182.7331 
   20600    -101855.8   -91846.114    243.10748    20721    226671.46   -23.487533    75.928445   -287.19819    140.80714    434.89257    23.512816    22.167168   0.59131454    435.48389   -38.999944    -3175.221 
   20700      -101830   -91837.506    242.68979    20721    226687.39   -16.743725   -26.052345   -211.05421    186.87538    434.78388    23.516581    22.170718   0.64566182    435.42954   -8.8512457   -3214.1975 
   20800   -101804.43   -91825.375    242.36343    20721    226434.39    6.5376879   -58.960726   -378.11358    456.68737    434.58833    23.508742    22.163327   0.74343568    435.33176    -18.33989   -3225.6757 
   20900    -101832.7   -91823.157    243.10383    20721    226410.77    46.761218   -87.548976    16.280834     211.5518    434.63752    23.506185    22.160916   0.71883913    435.35636   -36.469023   -3213.6622 
   21000   -101844.56   -91832.232    243.17146    20721    226558.55   -9.3567226   -182.38239    246.98914   -92.676917    434.57419    23.515568    22.169763   0.75050537    435.32469    -21.06772   -3213.7442 
   21100   -101797.08   -91794.996    242.92278    20721    226406.97    31.566092    126.99689    42.680561   -74.979179    434.57092    23.507789    22.162428   0.75213982    435.32306   -27.915325    -3252.361 
   21200   -101915.04   -91813.656    245.33445    20721    226585.14   -1.2166134   -48.093445    21.146491    23.297113    434.61874    23.515743    22.169927    0.7282304    435.34697   -21.612918   -3236.1613 
   21300   -101819.37   -91752.498    244.49629    20721    226504.25   -50.110354   -164.82246   -112.72588    127.21728    434.71838    23.508851     22.16343   0.67841207    435.39679   -45.587607   -3271.8595 
   21400   -101700.25   -91789.043    240.71566    20721    226668.97    25.880773    105.01719   -50.631065    23.256196    434.79058    23.515445    22.169646   0.64231144    435.43289    -26.16139   -3253.5622 
   21500   -101797.65   -91719.149    244.77876    20721    226624.16   -51.603771   -110.01606    -220.7701    175.97485    434.87011     23.51097    22.165427   0.60254484    435.47266   -34.260693    -3315.429 
   21600   -101738.77   -91752.629    242.53564    20721    226645.72   -8.2451414  -0.68193966   -62.764017    38.710532    434.91401    23.510901    22.165363    0.5805931    435.49461   -41.865484   -3275.2713 
   21700   -101662.68   -91733.605    241.14947    20721    226575.94    133.77863    284.52787    341.60375   -224.79572    434.87935    23.508218    22.162834   0.59792269    435.47728   -55.245892    -3290.979 
   21800   -101682.11   -91695.533     242.5462    20721    226489.85     24.48342    74.751182    76.897429   -78.198351    435.20685    23.494907    22.150284   0.43417372    435.64103   -57.459092     -3326.09 
   21900   -101657.93    -91663.84    242.72851    20721    226628.94    25.349224    15.696533    36.940286    23.410854     435.1862    23.502678     22.15761   0.44450079     435.6307   -70.056492   -3341.4076 
   22000    -101740.9   -91648.389    245.11896    20721    226484.76   -65.019416   -61.528567   -162.32926    28.799583    434.79834    23.505677    22.160438   0.63843045    435.43677   -54.405465   -3372.9839 
   22100   -101731.05   -91666.048    244.45091    20721    226693.64   -34.023841   -7.7922107   -53.639537   -40.639774     435.0482     23.50976    22.164287   0.51350098     435.5617   -45.852374   -3360.6864 
   22200   -101760.74    -91662.24    245.26442    20721     226536.7   -15.937772   -113.60181    7.2118419    58.576656    435.01201    23.502599    22.157535   0.53159712     435.5436   -45.510999   -3371.6884 
   22300   -101786.04    -91645.31    246.29005    20721    226534.65   -59.854525   -135.89639    54.358982    -98.02617    434.78947    23.508506    22.163105   0.64286669    435.43233   -43.278071   -3391.7931 
   22400   -101684.72   -91641.794    243.91456    20721    226640.28   -8.0571216   -128.16413     247.7925   -143.79973    434.94342    23.509824    22.164348   0.56589081    435.50931    -26.26532   -3413.0539 
   22500   -101725.04   -91584.703    246.28056    20721    226663.87   -16.928448    96.275426    147.25999   -294.32077    435.00032     23.50951    22.164051   0.53744244    435.53776   -50.484881    -3444.873 
   22600   -101663.29     -91561.6    245.34192    20721    226520.28   -4.7327941    19.359848    27.441233   -60.999464    434.85549    23.505975    22.160719   0.60985562    435.46534   -37.101312   -3486.4368 
   22700    -101600.9   -91543.261    244.27198    20721    226442.31    59.219748    52.617087    86.267609    38.774549     434.6457    23.507601    22.162252   0.71475031    435.36045   -43.426408   -3507.6407 
   22800   -101630.18   -91527.503    245.36581    20721    226568.61    31.471027    201.97458    75.438155   -182.99965    434.74594    23.511445    22.165876   0.66462935    435.41057   -35.349371   -3525.0269 
   22900   -101484.22   -91515.677    242.10814    20721    226434.87   -20.935826   -283.66018    121.96192    98.890786    434.72911     23.50496    22.159762   0.67304709    435.40215     -24.5882   -3547.5696 
   23000    -101564.8   -91513.463    244.11904    20721    226554.34   -89.534689   -100.63449   -141.80122    -26.16836    434.73052    23.511122    22.165571   0.67234178    435.40286   -33.402697   -3536.9957 
   23100    -101587.2   -91525.088    244.38078    20721    226591.39   -42.665387    61.467935   -367.48234    178.01825    434.87241    23.509208    22.163766    0.6013974     435.4738   -11.315558   -3551.0421 
   23200    -101571.7   -91514.701    244.25636    20721    226587.94    9.1527141   -82.583114    85.233006    24.808251    434.56608    23.517313    22.171408   0.75455935    435.32064   -11.740737   -3564.5019 
   23300   -101675.49   -91503.723    247.04388    20721    226501.92   -41.645282    55.986257    144.75708   -325.67918    434.59556    23.512051    22.166447   0.73981958    435.33538   -40.558593   -3548.5118 
   23400   -101625.25   -91526.196    245.27787    20721    226537.03   -27.577147    230.89202    116.14518   -429.76864    434.77717    23.508962    22.163534   0.64901366    435.42619   -19.570866   -3547.9312 
   23500   -101566.08   -91494.527    244.60986    20721    226571.53    61.215951    143.91945    25.665608    14.062796      434.853    23.508702    22.163289   0.61109852     435.4641   -34.417141   -3568.8405 
   23600   -101480.84   -91442.536    243.80245    20721    226457.91    17.458481   -20.284308   -243.77074    316.43049    434.60969    23.509385    22.163933    0.7327535    435.34245   -64.787669   -3592.6873 
   23700   -101534.56   -91413.805    245.80497    20721    226509.64   -24.215373   -126.52776   -127.74475    181.62639    434.81446    23.506532    22.161244   0.63036864    435.44483     -49.6688   -3632.0497 
   23800   -101452.25   -91399.123     244.1625    20721    226490.72    26.386425    12.565228   -54.210237    120.80429    434.43842    23.515721    22.169907   0.81839069    435.25681   -66.785394    -3632.816 
   23900   -101529.23   -91404.702    245.89654    20721    226326.68   -85.500939   -220.41383    61.367061   -97.456045    434.42583    23.507545    22.162199   0.82468563    435.25051   -66.176874   -3629.0293 
   24000   -101484.28   -91400.049    244.91793    20721    226369.91   -72.846615   -136.40013    136.05966   -218.19937    434.64283     23.50392    22.158782   0.71618543    435.35901   -86.730259   -3615.0886 
   24100   -101506.03   -91424.785    244.84533    20721    226291.82    -1.456567    57.067747    161.68969   -223.12713    434.53779    23.502706    22.157637   0.76870399     435.3065   -76.768135   -3607.7198 
   24200   -101510.52   -91455.429    244.21008    20721    226351.58    15.172888    80.444954   -66.075777    31.149486    434.51371     23.50646    22.161176   0.78074642    435.29445   -72.200258   -3580.9475 
   24300   -101495.35   -91419.947    244.70359    20721    226273.16   -22.217713   -78.153371    27.663571   -16.163337    434.40919    23.505216    22.160003   0.83300365     435.2422     -90.2366   -3600.0855 
   24400   -101585.64   -91420.915     246.8728    20721    226441.12    7.4389607    6.4318698    204.47834   -188.59333    434.18396    23.520035    22.173974    0.9456197    435.12958   -87.052328    -3600.898 
   24500   -101488.98   -91442.182    244.00865    20721    226249.85    36.546601    45.165715   -29.331514    93.805603    434.07198    23.513132    22.167466    1.0016115    435.07359   -76.884176   -3597.4488 
   24600   -101616.47   -91423.243      247.565    20721    226338.48   -15.184499     13.55408   -46.018913   -13.088663    434.17346    23.514989    22.169217   0.95087139    435.12433   -82.562113   -3606.3837 
   24700   -101569.35   -91419.814     246.5039    20721    226248.32   -71.744752   -197.62251    202.86967   -220.48141    433.99819    23.515052    22.169276     1.038505     435.0367   -74.826506   -3619.0518 
   24800   -101554.75     -91389.8    246.87832    20721    226345.38   -9.4712096    132.50452    149.83386   -310.75201    434.13058    23.516508    22.170649   0.97231036    435.10289    -90.29546   -3634.9601 
   24900   -101466.94   -91355.239    245.58494    20721    226208.48    24.053827   -162.20791   -312.23281     546.6022    434.10456      23.5101    22.164608   0.98532109    435.08988   -81.415243   -3684.4948 
   25000   -101549.81   -91385.934    246.85233    20721    226189.27   -46.650072   -233.70388    -29.67327    123.42693    433.96702    23.512827    22.167179    1.0540896    435.02111   -101.25851   -3633.9605 
   25100   -101520.04   -91392.895    245.96004    20721    226149.89   -24.354956    25.969447  -0.28889114   -98.745422    434.00751    23.509684    22.164215    1.0338451    435.04135   -75.049575   -3655.6462 
   25200   -101493.66   -91318.844    247.11796    20721    226281.07    59.448886    52.710107    45.731231     79.90532    434.26943    23.509408    22.163955   0.90288307    435.17232   -94.095626   -3712.3161 
   25300   -101426.77   -91321.731    245.42326    20721    226326.07   -2.3131624    120.13134    24.919182   -151.99001    433.86472    23.522709    22.176495    1.1052404    434.96996   -101.22317    -3698.704 
   25400   -101470.97   -91325.351    246.40878    20721     226210.9    29.223961   -78.036228    6.2911016    159.41701    433.78451    23.518897    22.172901     1.145344    434.92986   -92.343532   -3710.8755 
   25500   -101440.97   -91325.912    245.66656    20721    226397.43    17.406072   -97.787545    121.90435    28.101405    434.09783    23.520099    22.174035   0.98868505    435.08651   -102.66422   -3695.7136 
   25600   -101598.52   -91300.638    250.10675    20721    226388.48   -62.258687   -193.85013    149.28696   -142.21289    434.15152     23.51818    22.172225   0.96184142    435.11336   -95.569967   -3725.1192 
   25700   -101403.62   -91341.848    244.37251    20721    226679.42    23.426529    104.86276   -29.328704   -5.2544699    434.53364    23.522938    22.176711   0.77078223    435.30442   -82.175157   -3693.7399 
   25800    -101468.8    -91369.04      245.295    20721    226508.02    58.383541    26.776852   -13.290856    161.66463    434.16965    23.523897    22.177615   0.95277509    435.12242   -92.171194   -3663.0913 
   25900   -101508.53   -91333.902    247.11343    20721    226289.98   -53.052748   -16.142013   -23.943288   -119.07294    434.42495    23.505663    22.160424   0.82512636    435.25007   -80.932344   -3712.3942 
   26000   -101421.65   -91291.675    246.02884    20721     226427.7    -24.32311   -8.3316706   -3.7923176   -60.845341    434.55921    23.509182    22.163742   0.75799364    435.31721   -100.26704   -3733.4495 
   26100   -101439.58   -91314.902    245.90032    20721    226469.16   -24.658614    78.692388   -192.00227    39.334042    434.51971    23.512403    22.166779   0.77774394    435.29746   -85.346139   -3726.0591 
   26200   -101516.12   -91293.702    248.27412    20721    226544.67    19.074177    146.10141    271.49986   -360.37874    434.60785    23.513937    22.168225   0.73367307    435.34153   -66.714969   -3768.4673 
   26300    -101410.2   -91252.566    246.70055    20721    226466.79     45.85629    235.52049    126.73391   -224.68553    434.39571    23.515635    22.169826   0.83974507    435.23545   -70.746978   -3809.9273 
   26400   -101429.84   -91277.508    246.57182    20721    226553.91    23.621474   -79.453426   -69.982986    220.30083    434.33918    23.521689    22.175533   0.86801223    435.20719    -81.72261   -3772.2599 
   26500   -101432.18   -91260.672    247.03763    20721    226679.17    26.992521    127.95334    67.287651   -114.26343    434.53298    23.522943    22.176715   0.77110858    435.30409   -55.038061   -3812.8456 
   26600   -101439.82   -91224.758    248.09548    20721    226474.45   -86.645115    -5.053521   -29.511277   -225.37055    434.26656    23.519529    22.173497   0.90431903    435.17088   -48.621013   -3856.1162 
   26700      -101360   -91210.788     246.4962    20721    226407.94    3.4521514    90.847981   -67.860411   -12.631116    434.16006     23.51896     22.17296   0.95757071    435.11763   -69.470413   -3855.3014 
   26800   -101429.54   -91216.147    248.05483    20721    226445.56    4.2018454   -36.034566   -135.99117    184.63127    434.16145    23.520876    22.174767   0.95687436    435.11833   -62.978733   -3856.7699 
   26900   -101334.55   -91263.656    244.59385    20721    226271.68    67.880396    138.26263   -53.088661    118.46722    434.07306    23.514237    22.168508    1.0010689    435.07413   -61.999031   -3819.6957 
   27000   -101394.09   -91233.702    246.76754    20721    226347.81    69.083484    184.80382    143.02452   -120.57788    433.98281    23.520638    22.174542    1.0461934    435.02901   -85.409634   -3824.6915 
   27100   -101380.55   -91195.102    247.37615    20721     226218.1    29.611785    15.873412    112.97431   -40.012365    433.85322    23.517409    22.171498    1.1109911    434.96421    -80.33415    -3871.748 
   27200    -101451.1   -91212.859    248.65825    20721    226213.36    35.283767   -53.377436   -7.2602683    166.48901    433.93251    23.515014     22.16924    1.0713447    435.00386   -71.345349   -3866.5546 
   27300   -101359.05   -91182.675    247.15583    20721    226440.32    52.790278    248.35925    52.339315   -142.32773    434.10764    23.522062    22.175885   0.98377953    435.09142   -93.974786   -3868.1121 
   27400   -101437.34   -91253.069    247.34756    20721    226186.16    77.748896    138.75373     138.8825   -44.389546     434.2345    23.505423    22.160198   0.92035241    435.15485   -79.089568   -3823.4562 
   27500   -101347.87   -91202.104    246.41242    20721    226353.89   -64.564721    63.458246     82.55718   -339.70959    434.40325    23.509569    22.164107   0.83597345    435.23923   -74.615185   -3868.1173 
   27600   -101321.82   -91163.447    246.71854    20721    226121.38    73.736109    12.089143    180.91494    28.204247    434.15551    23.504194     22.15904   0.95984473    435.11536   -86.021297   -3907.7062 
   27700   -101362.75   -91105.114    249.12946    20721     226136.3   -21.452106   -138.88482    31.845114    42.683386    434.13347    23.505567    22.160334   0.97086587    435.10433   -98.273985   -3949.6124 
   27800   -101372.27   -91119.725    249.00584    20721    226270.23    3.7094012   -165.40556    174.51398    2.0197841     434.4292    23.504522    22.159348   0.82300068     435.2522   -90.172494   -3943.2196 
   27900   -101252.02   -91068.617    247.32645    20721    226238.96    -31.18751    140.87476   -146.68694   -87.750345    434.22116    23.508527    22.163125   0.92701836    435.14818   -94.177839   -3991.4201 
   28000   -101369.98   -91100.415    249.41903    20721    226334.54   -61.768813   -89.480252   0.36469882   -96.190885    433.97957    23.520037    22.173975    1.0478173    435.02738   -90.143579   -3962.8888 
   28100   -101280.71   -91081.902    247.70069    20721    226396.56    7.6118803   -85.159654    381.56594   -273.57064    434.17574    23.517944    22.172002   0.94973066    435.12547   -88.179754   -3985.9632 
   28200   -101274.31   -91072.847    247.76502    20721    226339.66   -5.3596147   -16.294981   -1.0677453    1.2838817    434.17725    23.514948    22.169178   0.94897592    435.12622   -93.100412   -3991.4892 
   28300   -101176.32   -91051.493    245.90382    20721    226268.62    88.879512    83.921286   -103.10005     285.8173     434.3777    23.505831    22.160583    0.8487485    435.22645   -88.709648   -4022.3292 
   28400   -101250.44   -91032.852    248.15678    20721    226273.38    21.511041    86.549189    1.8263008   -23.842367    434.30553    23.508032    22.162658   0.88483645    435.19036   -80.026196   -4048.6281 
   28500   -101198.59   -90987.011     248.0109    20721    226424.21   -49.127278   -118.85998    30.659082   -59.180936    434.31542    23.515598    22.169791   0.87989231    435.19531   -95.131182    -4073.688 
   28600    -101281.8    -91021.78    249.18719    20721    226478.49    6.9066632   -1.2106698    254.75389   -232.82323    434.23981    23.520463    22.174378   0.91769295    435.15751   -87.169622   -4047.2989 
   28700   -101238.46   -90958.081    249.68164    20721    226276.93   -50.705692   -153.24401    234.21499   -233.08806    433.97955    23.517044    22.171154    1.0478252    435.02737   -86.147514   -4115.1522 
   28800    -101150.8   -90932.974    248.16243    20721    226545.27   -31.919278   -134.82826    33.498645    5.5717775    434.07224    23.528471    22.181927    1.0014799    435.07372   -104.21946    -4116.216 
   28900   -101196.84   -90949.123    248.88841    20721    226696.34   -21.188177   -124.78595   -103.06241    164.28383    434.28063    23.530667    22.183998   0.89728569    435.17791   -93.755667   -4108.9023 
   29000   -101135.27   -90959.091    247.15109    20721    226413.98     167.5509    416.42323    264.42173   -178.19226    434.21272    23.517847    22.171911   0.93123918    435.14396   -79.857609   -4131.8117 
   29100   -101086.57   -90931.407     246.6405    20721    226482.52    1.4112264    100.46709   -115.63581    19.402397     434.1802    23.522287    22.176097   0.94750202     435.1277   -81.698732   -4146.9532 
   29200   -101133.83   -90949.369    247.35211    20721    226502.06    83.608247    107.82008   -216.71632    359.72098    434.56913    23.512773    22.167128   0.75303261    435.32217   -80.581171   -4135.9237 
   29300   -101219.77   -90920.791    250.13347    20721    226520.15   -30.534762    23.943104    88.970653   -204.51804    434.60465    23.512751    22.167107   0.73527613    435.33992   -68.350961   -4171.6573 
   29400   -101182.67   -90953.601    248.43548    20721    226352.02    18.751318   -303.28781    288.38472    71.157048    434.56111    23.505201    22.159989   0.75704309    435.31816   -43.163078   -4173.6206 
   29500   -101148.07   -90905.176    248.77143    20721    226530.28    21.608196    25.010431    -241.8048    281.61896    434.48243    23.516584    22.170721   0.79638475    435.27882   -66.099064   -4195.2918 
   29600   -101070.41   -90891.269    247.22296    20721    226582.55    30.922488    100.08387    46.250343   -53.566747    434.61973    23.515582    22.169775   0.72773471    435.34747   -66.339448   -4206.4421 
   29700   -101158.33    -90902.61    249.08298    20721    226511.49   -5.5019368   -24.609106   -6.4524611    14.555757    434.38399    23.518273    22.172313   0.84560606    435.22959   -75.204873   -4189.6889 
   29800   -101189.33   -90898.719    249.93029    20721    226459.32   -103.64044    9.9305593   -312.79894   -8.0529437    434.40798    23.514915    22.169147   0.83360962    435.24159   -79.351753   -4188.4027 
   29900   -101050.38   -90877.104    247.08053    20721    226201.49    28.191369 -0.078540944    113.61245   -28.959799     434.3253    23.503762    22.158632   0.87495224    435.20025   -76.108559   -4226.1319 
   30000   -101134.67   -90837.835    250.08141    20721    226349.87  -0.95765406   -59.720466    152.24118   -95.393677    434.30866     23.51192    22.166324   0.88327063    435.19193   -88.384785   -4249.5878 
   30100   -101115.63   -90843.356    249.48491    20721    226349.84   -99.167123  -0.85284226   -17.604442   -279.04408    434.26154    23.513194    22.167524   0.90682895    435.16837   -81.139871   -4247.0855 
   30200   -101087.15   -90874.853    248.02824    20721       226280    89.805899    58.826888    140.85669    69.734121    434.13807    23.512909    22.167256    0.9685669    435.10663   -111.26405   -4196.4849 
   30300   -101147.22     -90855.1      249.967    20721    226252.25   -1.6528926   -7.9556879    89.475458   -86.478448    434.16098    23.510847    22.165312   0.95711069    435.11809   -118.93398   -4207.0837 
   30400   -101021.82   -90806.187    248.10923    20721    226331.41    20.691883    50.929472    76.064176   -64.917999    434.02844     23.51855    22.172574    1.0233818    435.05182   -133.79476   -4239.8233 
   30500      -101012   -90819.502    247.54728    20721    226351.54    75.922692    224.59515     40.93902   -37.766099    434.19875    23.514982    22.169211   0.93822659    435.13697   -137.54255   -4225.6883 
   30600   -101141.29   -90812.703    250.85252    20721    226220.42   -63.325017   -7.2857822   -287.05434    104.36507    434.09761    23.510909     22.16537   0.98879456    435.08641   -125.01503    -4245.841 
   30700   -101080.84   -90819.722     249.2139    20721    226069.31    -21.63204    15.691751    -147.5044    66.916534    433.73101    23.512986    22.167328     1.172093    434.90311   -114.63636   -4256.0747 
   30800   -100998.33   -90804.022    247.59133    20721    226055.19    98.356468   -8.8509499    200.07864    103.84171    433.67862    23.513671    22.167975    1.1982895    434.87691   -116.47055   -4274.8344 
   30900   -101089.66   -90782.809    250.32466    20721    226109.56     82.53383    234.47758   -52.557669    65.681579      433.676     23.51657    22.170708     1.199602     434.8756   -118.72882   -4295.1928 
   31000   -100971.98    -90773.11    247.70204    20721    226021.22   -22.819183    94.929142    9.2386899   -172.62538    433.64594    23.512791    22.167144    1.2146281    434.86057   -104.32251    -4317.025 
   31100   -101056.71   -90789.343    249.36577    20721    226102.34    12.390704    96.439894   -168.20134    108.93356    433.89058    23.510379    22.164871    1.0923122    434.98289   -93.916266   -4311.6186 
   31200   -101087.69   -90864.347    248.29643    20721    225965.83    35.115538    50.236878     60.72017   -5.6104343     433.6765    23.509081    22.163647    1.1993481    434.87585   -72.242762   -4265.0551 
   31300   -101118.85   -90827.894    249.93872    20721    226155.96    13.486985   -87.273945    177.17159   -49.436692    433.72637    23.517617    22.171695    1.1744161    434.90078   -65.632716   -4304.8536 
   31400    -101076.6   -90838.771     248.6484    20721    225954.57   -79.334657   -125.21622    -323.3461    210.55835    433.71739    23.507387     22.16205    1.1789048     434.8963   -81.832338    -4278.427 
   31500   -101196.17   -90783.362    252.89818    20721    226289.84    -49.30527    79.639615    69.764683   -297.32011    433.99624    23.517262     22.17136    1.0394794    435.03572    -72.82427    -4338.783 
   31600   -101044.75   -90821.133    248.30327    20721    226084.18    40.647174   -97.194605    272.66502   -53.528895    433.66385     23.51558    22.169774    1.2056746    434.86953   -66.334847   -4319.0521 
   31700   -101061.36    -90763.83    250.09825    20721    226239.37   -33.182331    -71.35098   -150.21293    122.01691    433.69526    23.522797    22.176578     1.189971    434.88523   -65.607334   -4367.6275 
   31800   -101112.13   -90802.089    250.40204    20721    226143.39    29.277932   -74.085292   -73.538534    235.45762    433.71004    23.517406    22.171496    1.1825799    434.89262   -65.645327    -4336.219 
   31900   -101102.74   -90782.682    250.64535    20721    226137.66    83.513105    167.09206   -20.239413    103.68667    434.00085    23.509228    22.163786    1.0371752    435.03802    -70.46783   -4356.9206 
   32000   -101025.59   -90792.611    248.53046    20721    226215.68   0.25530811    -250.8359    189.84709    61.754732    433.95766    23.514454    22.168712    1.0587723    435.01643   -55.892035   -4358.4082 
   32100   -101031.63   -90746.059    249.80794    20721     226381.3    69.610137    72.332357    32.930619    103.56744    433.86108    23.525678    22.179294    1.1070616    434.96814   -92.886697   -4366.2267 
   32200   -101143.51   -90734.611    252.80315    20721    226076.47   -74.355413    188.74368   -127.16343   -284.64649    433.64912    23.515578    22.169772    1.2130386    434.86216   -96.769667   -4376.4044 
   32300   -100952.87   -90740.904    248.02012    20721    225980.13    34.577519    71.103437   -118.58614    151.21526    433.39288    23.517516    22.171599    1.3411583    434.73404   -101.90411   -4373.1463 
   32400   -100940.64   -90728.636    248.02108    20721    226092.98     35.29553     19.69842   -124.27532    210.46349    433.25308    23.527183    22.180713     1.411062    434.66414   -108.72424   -4376.4856 
   32500   -101116.43   -90723.677     252.4111    20721    226080.09    83.133809    150.74947   -119.76633    218.41829    433.05111    23.531998    22.185252    1.5120442    434.56316   -108.43004   -4388.0203 
   32600   -100965.66   -90684.834    249.69256    20721    226161.67   -53.899694   -87.886052   -206.11733     132.3043    433.39161    23.526996    22.180536    1.3417965     434.7334   -107.10774   -4416.8999 
   32700   -101001.29   -90657.262     251.2277    20721    226234.94    19.796624   -20.504396     121.7496   -41.855328    433.29573    23.533409    22.186583    1.3897335    434.68547   -124.84756   -4430.8893 
   32800   -100876.19   -90626.025    248.94787    20721    226031.97    65.965859    319.29723   -131.04818    9.6485311     433.3219     23.52214    22.175959    1.3766513    434.69855   -117.92876   -4478.0051 
   32900   -100910.42   -90638.959    249.46517    20721    226054.83   -5.5313757    19.213401   -239.76746    203.95993    433.45629    23.519683    22.173642    1.3094557    434.76574   -117.16428   -4462.1869 
   33000   -100931.98   -90603.702    250.84507    20721    226208.93    57.697092    175.75657   -333.83926    331.17396    433.64531    23.522569    22.176363    1.2149444    434.86026   -107.11961   -4506.7952 
   33100   -100956.05   -90583.127    251.92935    20721    226178.22    6.3788224   -20.335401     50.06697   -10.595102    433.64437    23.520999    22.174882    1.2154154    434.85978   -133.26377   -4502.2119 
   33200   -100896.44   -90633.727    249.25275    20721    226095.18   -32.604764   -37.640538    -20.07945   -40.094306    433.44881    23.521985    22.175812    1.3131973      434.762   -122.33128   -4461.8453 
   33300   -100901.84   -90622.219    249.66324    20721    225968.09   -20.778376   -23.373596   -85.508319    46.546788    433.55087    23.512605    22.166969    1.2621671    434.81303   -133.49667   -4469.1931 
   33400   -100934.05   -90624.219    250.39696    20721    226184.14   -19.232768   -48.126577   -127.79462    118.22289     433.6843    23.520223    22.174151    1.1954501    434.87975   -118.00673   -4475.9802 
   33500    -100829.4    -90563.39    249.33287    20721    225865.54    9.4761835   -187.17131    107.85413    107.74573    433.26928    23.514907    22.169139    1.4029613    434.67224   -133.98682   -4532.4771 
[...]
  491800   -95553.959   -84035.526    279.75062    20721    220797.24    43.644178    63.079337    168.52282   -100.66962    423.84318    23.506688    22.161391    6.1160104    429.95919    5401.2733   -23834.993 
  491900   -95759.131   -84029.272    284.88559    20721    220989.75   -79.830456    59.082219   -51.331097   -247.24249    423.98565    23.512981    22.167324    6.0447725    430.03043    5376.2953   -23805.929 
  492000   -95575.994   -84039.846    280.18087    20721    220546.72    6.3335321    12.590939    13.221329   -6.8116712    423.38262    23.506123    22.160858    6.3462915    429.72891    5380.0305   -23816.678 
  492100    -95564.04   -83992.644    281.03696    20721    221026.77   -4.4216923   -91.853619   -20.970872    99.559415    423.85396    23.518603    22.172624    6.1106206    429.96458    5382.7533   -23853.049 
  492200   -95664.542   -84018.889    282.84046    20721     220954.6   -45.585278   -169.18177    105.78558   -73.359637    423.91518    23.513066    22.167404    6.0800112    429.99519    5393.7093    -23840.25 
  492300   -95718.839   -84021.176    284.10364    20721    221002.98   -43.910305   -51.611876   -82.346809    2.2277689    424.22671    23.507004    22.161688    5.9242457    430.15095    5420.1693   -23865.704 
  492400   -95750.378    -84044.63        284.3    20721    221007.73   -27.090745    70.317313     147.0173   -298.60685    424.19487    23.508139    22.162759    5.9401645    430.13504    5391.9369   -23816.158 
  492500   -95748.125   -84062.903    283.80148    20721    221066.55    70.785454    275.87425   -22.360108   -41.157783    423.84842    23.520874    22.174765    6.1133917    429.96181     5409.281   -23820.564 
  492600   -95698.995   -84079.375    282.20819    20721     220943.3    28.441343    54.280326    38.177064     -7.13336    423.87669    23.513532    22.167843    6.0992541    429.97595    5399.5054   -23795.845 
  492700    -95654.92   -84070.666    281.34924    20721     221125.1   -23.632429      83.9836   -219.45068     64.56979    424.14263    23.515828    22.170008    5.9662861    430.10891    5429.6811   -23825.616 
  492800   -95805.051    -84036.47    285.82602    20721    221158.86   -58.338292   -154.50723    136.09428   -156.60192    423.90067    23.524334    22.178027    6.0872633    429.98794     5405.428   -23838.313 
  492900   -95643.086   -84007.256    282.60189    20721    221115.12   -64.575563   -66.695071   -53.609754   -73.421865    423.84037    23.523681    22.177411    6.1174151    429.95778    5423.7091   -23886.604 
  493000    -95559.37   -84042.753    279.70653    20721    220773.84   -35.608887   -113.24946    230.52979   -224.10699    423.74714    23.508106    22.162727    6.1640309    429.91117     5414.373   -23856.103 
  493100   -95746.461   -84043.833    284.22422    20721    220833.86   -24.712952    265.28692   -175.48984   -163.93594     423.8129    23.509477     22.16402    6.1311493    429.94405    5434.2142   -23873.136 
  493200    -95557.99   -84059.672    279.26209    20721     220973.8    107.17408    245.77708   -24.230216    99.975378    423.76462    23.518264    22.172304    6.1552907    429.91991    5432.2827   -23857.603 
  493300   -95700.279   -84089.402    281.99586    20721    221150.01   -43.802821    149.56169   -385.88654    104.91639    424.10534    23.518186    22.172231    5.9849284    430.09027    5440.0575   -23828.437 
  493400   -95669.301   -84052.045    282.15079    20721    220994.78   -70.518023    28.053151   -186.27705    -53.33017    424.19505    23.507445    22.162104    5.9400762    430.13512    5435.6242   -23864.747 
  493500   -95595.396   -84030.067    280.88961    20721    220932.46   -12.853406    76.590506    -19.37351   -95.777215    423.95175    23.510873    22.165337    6.0617247    430.01348     5451.257   -23910.556 
  493600   -95634.468   -84051.762    281.31164    20721     220800.7    89.530878    244.35307    18.403035    5.8365325      423.736    23.509845    22.164367    6.1695999     429.9056     5452.299   -23900.004 
  493700   -95650.025   -84050.289    281.72525    20721    220914.54   -20.463012   -91.204377   -51.306534    81.121875    423.77361    23.514861    22.169096    6.1507958     429.9244    5446.6759   -23890.665 
  493800   -95689.332   -84043.444    282.84617    20721    220927.31   -12.530324    53.883259   -292.61642    201.14218    423.58432    23.520794     22.17469    6.2454377    429.82976    5434.7023   -23885.847 
  493900   -95698.361   -84120.078    281.20423    20721    221041.36     80.91164    105.69647    140.73599   -3.6975402    423.45007    23.530594    22.183928    6.3125634    429.76264    5460.8059    -23837.35 
  494000   -95569.464   -84069.595    279.29977    20721    221301.96   -15.450218    29.884857    83.272251   -159.50776    423.75797    23.535905    22.188936    6.1586133    429.91659     5462.325   -23875.938 
  494100   -95758.276   -84072.956    283.80384    20721    221162.57   -76.788182    124.28418   -132.10534   -222.54339    423.74345    23.528895    22.182327    6.1658726    429.90933    5473.1668   -23886.902 
  494200    -95671.78   -84018.048    283.03667    20721    220823.66    97.978063   -62.812795   -151.05861     507.8056    423.48448    23.518048      22.1721    6.2953604    429.77984    5458.4841   -23952.063 
  494300   -95491.315   -83953.562    280.21987    20721    221098.23    111.62098    24.702721   -3.8548526    314.01506     424.0202    23.517794    22.171861    6.0274986     430.0477    5450.9636   -23999.019 
  494400    -95548.09    -83955.32    281.55606    20721    221047.24   -3.8304549    31.787231   -79.951527    36.672932    424.02371    23.514985    22.169213    6.0257464    430.04945    5458.1434    -24002.65 
  494500   -95609.553   -84024.194     281.3761    20721    221028.12   -28.897906   -37.476725   -115.34339    66.126392    424.21186    23.508752    22.163337    5.9316677    430.14353     5457.753   -23935.552 
  494600   -95595.812   -84007.276    281.45326    20721    221192.69   -27.266683   -115.97379   -198.12993    232.30367    424.39634    23.512391    22.166767    5.8394289    430.23577    5469.2778   -23958.801 
  494700   -95626.413   -83946.784    283.66564    20721    221111.95   -54.986581   -102.61903    16.229538   -78.570253    424.16139    23.514609    22.168858    5.9569069    430.11829    5444.5914   -23997.058 
  494800   -95546.821   -83938.948    281.92289    20721    221326.71    78.885259    135.74319    48.622581    52.290007    424.17446    23.525663     22.17928    5.9503714    430.12483    5462.5905   -24023.302 
  494900   -95648.737    -83983.83     283.3081    20721    220976.52    23.235259   -147.54613    69.367363    147.88454    424.01525    23.511457    22.165887    6.0299749    430.04523     5446.678    -23974.59 
  495000   -95532.177   -83935.284     281.6562    20721    221392.38    49.640015    192.13972    126.66176   -169.88143    424.13545    23.530235     22.18359    5.9698738    430.10533     5436.721   -24001.765 
  495100   -95595.568   -83961.876    282.54996    20721    221323.82    6.3465596   -116.04644   -142.54973    277.63585    424.12683     23.52683    22.180381    5.9741872    430.10101    5467.1149   -24007.038 
  495200   -95666.754   -83949.052     284.5903    20721    221182.18    31.528509    86.641679    101.83278   -93.888934    424.03986    23.521712    22.175555    6.0176687    430.05753    5461.5336   -24023.113 
  495300   -95586.009   -83944.317    282.74424    20721    221121.88   -20.152258    91.462391    -59.64979   -92.269375    423.67233    23.528705    22.182148     6.201436    429.87376    5486.8717   -24054.978 
  495400   -95530.399   -83938.028    281.54638    20721    221104.76     30.59578    94.839076   -9.8402594    6.7885221     423.8075    23.524042    22.177752    6.1338513    429.94135    5481.6704   -24059.316 
  495500   -95595.109   -83998.794    281.64217    20721    221143.72    59.704741    108.16127    111.35023   -40.397281    424.00145    23.520733    22.174632    6.0368743    430.03833     5494.502   -24011.726 
  495600   -95693.981   -83963.874    284.89161    20721    220968.87   -5.4551929   -20.888454    197.53507    -193.0122    423.71337    23.519424    22.173398    6.1809151    429.89428    5488.9337   -24048.204 
  495700   -95655.351    -83941.92    284.48658    20721    221104.78    15.035756   -31.327116    286.31117   -209.87679    423.75894    23.525391    22.179023    6.1581315    429.91707    5496.1972   -24072.756 
  495800   -95600.805    -83953.47     282.8813    20721     220919.9   -123.98682   -45.647544   -334.02916    7.7162488    423.49371    23.522916     22.17669    6.2907448    429.78446     5496.304   -24062.193 
  495900   -95501.407   -83972.266     280.0107    20721    220571.24    78.452727    111.43943    100.30531    23.613437    423.21001    23.512223    22.166609    6.4325975     429.6426    5498.8775   -24067.701 
  496000   -95613.714   -83957.559    283.09553    20721    221076.32    101.88807    155.72333   -169.19965    319.14052    423.32367    23.535967    22.188995    6.3757632    429.69944     5486.666   -24057.003 
  496100   -95632.479   -83967.505    283.30971    20721    221055.59    21.910291   -66.196624     218.6125   -86.685006    423.57072       23.528    22.181483    6.2522408    429.82296    5499.1045   -24058.386 
  496200   -95545.129   -83940.771    281.83753    20721    220979.59   -49.516589   -180.17227   -162.56705    194.18955    423.71598    23.519922    22.173867    6.1796096    429.89559    5494.4973   -24081.212 
  496300   -95598.728   -83885.642    284.47821    20721    221150.44   -44.094268    232.67906   -209.09633   -155.86554    423.98114    23.521654      22.1755    6.0470279    430.02817    5463.1231   -24102.729 
  496400   -95537.269   -83929.064    281.93094    20721    221192.49   -26.770795    129.46529   -21.251886   -188.52579    423.98929    23.523664    22.177395    6.0429559    430.03224    5462.4368   -24060.848 
  496500   -95671.584   -83938.511    284.96364    20721    220990.78   -4.1512256    188.55117   -175.41698   -25.587861    424.01098    23.512334    22.166714    6.0321093    430.04309    5463.5814    -24060.69 
  496600   -95628.153   -83928.473    284.15261    20721    220966.29   -32.190164   -14.785255   -128.14025     46.35501     424.1203    23.508001    22.162628    5.9774496    430.09775    5463.9136   -24073.638 
  496700   -95688.817   -83946.031    285.19955    20721    220752.14   -29.977623    43.910341   -73.745043   -60.098165    424.22128     23.49381     22.14925    5.9269592    430.14824    5484.4396   -24085.774 
  496800   -95637.494   -83967.985    283.41985    20721    220808.55     110.1455   -23.688263    7.1927322    346.93203    423.95044    23.504316    22.159155    6.0623811    430.01282    5491.8534   -24076.817 
  496900   -95576.988   -83975.875     281.7587    20721    220852.15   -42.063559   -102.12281   -123.99524    99.927381    423.94833    23.506695    22.161397    6.0634353    430.01176    5481.2781   -24049.572 
  497000   -95674.548   -83935.021    285.12041    20721    221161.93    38.323348   -52.599025   -234.61676    402.18583     423.8788    23.525104    22.178753    6.0981995      429.977     5503.744   -24108.121 
  497100   -95673.203   -83956.454    284.56718    20721     220967.7   -1.3747215   -205.93716   -19.476378    221.28937    423.44405     23.52684    22.180389    6.3155738    429.75963    5491.8788   -24081.973 
  497200   -95550.094   -83941.952    281.92941    20721    220895.73   -26.341096   -98.556016    2.9698251    16.562904    423.13584    23.531573    22.184852    6.4696793    429.60552    5468.9631   -24073.544 
  497300   -95632.787   -83926.712    284.30795    20721     220790.6    107.61468    375.98575    -101.3104    48.168681     423.3718    23.519416    22.173391       6.3517     429.7235    5450.4388   -24085.222 
  497400   -95550.154    -83911.07     282.6809    20721    220801.18    132.30946    139.54631    323.95044   -66.568365    423.71493    23.510455    22.164942    6.1801355    429.89506    5468.4403   -24119.741 
  497500   -95643.075   -83947.904    284.04313    20721    220694.36   -98.941827   -136.03999    87.477356   -248.26284    423.46499    23.511702    22.166118    6.3051025     429.7701    5460.7634   -24068.956 
  497600   -95596.491   -83883.384    284.47874    20721    221053.05    108.67895    143.82596    36.965653    145.24525     423.2985    23.535428    22.188486    6.3883518    429.68685    5448.5246   -24120.595 
  497700   -95580.229   -83866.839     284.4856    20721    221145.67   -3.2751424    45.185159    1.9427491   -56.953335    423.23997    23.541986    22.194669    6.4176136    429.65759    5463.4365    -24145.12 
  497800   -95500.376   -83869.891    282.47208    20721    220850.22    64.964509     185.3688      210.932   -201.40728    423.08215    23.530642    22.183974    6.4965261    429.57867    5473.0199   -24165.521 
  497900   -95592.202   -83885.092    284.33309    20721    220890.01    1.8832168   -85.526212   -11.251491    102.42735    423.13819    23.531204    22.184503    6.4685071    429.60669    5469.4955   -24142.395 
  498000    -95503.31   -83868.223    282.58386    20721     221190.5   -56.978186   -28.499935   -231.05408     88.61946    422.87803    23.554446    22.206416    6.5985871    429.47661    5479.6014   -24158.153 
  498100   -95637.969   -83843.076    286.46507    20721    221303.89   -59.608666   -186.18309    107.60346   -100.24636    422.81953    23.562112    22.213643    6.6278357    429.44736    5461.7263   -24164.589 
  498200   -95496.612   -83887.384    281.95579    20721    221056.75    85.779756    228.67814    114.75067   -86.089542    422.71851    23.551766    22.203889    6.6783445    429.39686    5453.5537    -24127.88 
  498300   -95493.293   -83867.103    282.36774    20721    221080.11    6.9056436    22.798343    81.689669   -83.771081    422.80874    23.550497    22.202693    6.6332309    429.44197    5452.3835   -24144.463 
  498400   -95521.928   -83898.843    282.29233    20721     221097.6    79.288059    79.753989    23.786628    134.32356    423.13722    23.542285    22.194951    6.4689875    429.60621    5459.5751   -24122.202 
  498500   -95493.425   -83906.893    281.40457    20721    221129.53    3.5701254    135.01937   -299.79329     175.4843    423.12975    23.544193    22.196749    6.4727266    429.60247    5473.0942   -24127.126 
  498600   -95594.526   -83943.112    282.98036    20721    221102.12   -73.678119   -110.33324    45.185221   -155.88634    423.24169     23.53962    22.192438    6.4167552    429.65844    5482.4383   -24100.215 
  498700    -95539.22   -83960.107     281.2244    20721     220890.3   -21.904562   -35.507514   -20.192545   -10.013627     423.2346    23.528539    22.181991    6.4202986     429.6549    5482.6385   -24091.924 
  498800   -95590.384   -83960.947    282.44662    20721    220913.21    60.413567   -37.428457    133.02131    85.647846    422.85407    23.540344     22.19312    6.6105629    429.46464    5498.3287   -24113.876 
  498900   -95580.677   -83966.644    282.07252    20721    220800.47   -41.077299   -86.993564    41.212048   -77.450381    422.84044    23.534716    22.187814    6.6173783    429.45782    5506.4336   -24114.849 
  499000   -95533.644   -83946.703     281.4145    20721    220804.17   -118.56178   -273.93552    -108.5336    26.783794    422.91821    23.532749     22.18596    6.5784974     429.4967    5495.9635   -24121.908 
  499100   -95496.017   -83942.087    280.61276    20721    220690.03    105.42357    64.972776    138.59166    112.70627    422.69922    23.532759     22.18597    6.6879922    429.38721    5491.1364   -24139.024 
  499200   -95641.301    -83943.73    284.10141    20721    220838.13   -155.40893   -67.650529   -134.87144   -263.70482    422.50152    23.546161    22.198605    6.7868413    429.28836    5497.4791   -24128.437 
  499300   -95574.012   -83899.007    283.55334    20721    220814.99    41.339496    29.565818   -56.819632     151.2723    422.44416    23.546526    22.198949    6.8155212    429.25968    5492.0908   -24178.342 
  499400    -95512.48   -83950.606    280.80571    20721    220873.23     18.31829   -83.035328   -69.799147    207.78934    422.49404    23.548241    22.200565    6.7905804    429.28462    5495.0299   -24128.528 
  499500   -95584.548   -83973.878    281.99081    20721     220868.8    105.00769    201.66995    21.079618    92.273494    422.20844    23.555967     22.20785    6.9333798    429.14182    5507.1716   -24124.192 
  499600   -95618.859   -84033.249    281.38218    20721    220605.44    56.230799    38.631955    115.12484    14.935604    422.27267    23.540129    22.192918    6.9012628    429.17394    5541.8116   -24110.075 
  499700   -95570.539   -83951.827    282.18614    20721    220717.16   -11.244588    73.286483   -218.85207    111.83182    422.61219    23.536629    22.189618     6.731503     429.3437    5507.0283   -24148.761 
  499800   -95727.715   -84046.928    283.69376    20721    220761.43   -35.155384    -183.9372   -92.572496    171.04355    422.29664    23.547782    22.200133    6.8892813    429.18592    5546.0191   -24092.157 
  499900   -95611.022   -83970.842    282.70755    20721    220763.58    26.704306    170.45834    50.216908   -140.56233    422.15804    23.551762    22.203885    6.9585789    429.11662    5533.7211    -24156.53 
  500000   -95608.437     -83950.2    283.14608    20721    220632.96   -112.10442   -36.227241   -259.10864    -40.97739    422.28467    23.541263    22.193987    6.8952663    429.17993    5507.6735   -24151.834 
Loop time of 71466.6 on 32 procs for 500000 steps with 20721 atoms

Performance: 1.209 ns/day, 19.852 hours/ns, 6.996 timesteps/s
97.3% CPU use with 32 MPI tasks x no OpenMP threads

MPI task timing breakdown:
Section |  min time  |  avg time  |  max time  |%varavg| %total
---------------------------------------------------------------
Pair    | 13539      | 14600      | 16634      | 832.7 | 20.43
Bond    | 0.7795     | 0.89358    | 1.2676     |  10.7 |  0.00
Kspace  | 13383      | 15418      | 16483      | 812.0 | 21.57
Neigh   | 10724      | 12772      | 14686      |1448.0 | 17.87
Comm    | 581.27     | 1795.3     | 3995.9     |2621.9 |  2.51
Output  | 8.9253     | 30.743     | 41.405     | 199.3 |  0.04
Modify  | 25435      | 26764      | 29470      | 838.2 | 37.45
Other   |            | 85.29      |            |       |  0.12

Nlocal:    647.531 ave 707 max 608 min
Histogram: 4 4 6 6 1 1 2 6 0 2
Nghost:    7402.78 ave 7873 max 6969 min
Histogram: 2 4 6 5 3 1 1 2 5 3
Neighs:    238757 ave 279300 max 213741 min
Histogram: 4 8 8 0 1 0 4 4 1 2
FullNghs:  477516 ave 556852 max 432731 min
Histogram: 6 9 5 1 0 1 2 5 1 2

Total # of neighbors = 15280517
Ave neighs/atom = 737.441
Ave special neighs/atom = 2
Neighbor list builds = 500000
Dangerous builds not checked
write_data production.R1
PPPM initialization ...
  extracting TIP4P info from pair style
WARNING: Using 12-bit tables for long-range coulomb (../kspace.cpp:316)
  G vector (1/distance) = 0.345957
  grid = 400 48 48
  stencil order = 5
  estimated absolute RMS force accuracy = 0.000400819
  estimated relative force accuracy = 1.20705e-06
  using double precision FFTs
  3d grid and FFT values/proc = 67260 38400
write_restart restartproduction.R1
PPPM initialization ...
  extracting TIP4P info from pair style
WARNING: Using 12-bit tables for long-range coulomb (../kspace.cpp:316)
  G vector (1/distance) = 0.345957
  grid = 400 48 48
  stencil order = 5
  estimated absolute RMS force accuracy = 0.000400819
  estimated relative force accuracy = 1.20705e-06
  using double precision FFTs
  3d grid and FFT values/proc = 67260 38400
Total wall time: 19:51:07
