LAMMPS (30 Jul 2016)
# Sets up LAMMPS simulation for transient melting of ice: TIP4P/Ice
# Ensure cold thermostats do not move
# Thinbox: 16x1x1
# Defects
# Order param l=2

#### setting MD parameters ####
units real
boundary p p p
atom_style full

# read ice box in restart file
#read_data ice-ih-restart.data
read_restart restart.state
  orthogonal box = (0.256398 0.0138356 0.0130438) to (435.819 23.5174 22.1715)
  32 by 1 by 1 MPI processor grid
  20736 atoms
  13824 bonds
  6912 angles
  2 = max # of 1-2 neighbors
  1 = max # of 1-3 neighbors
  1 = max # of 1-4 neighbors
  2 = max # of special neighbors

#replicate 16 boxes, 16x1x1


#### force field definition ####
pair_style      lj/cut/tip4p/long 2 1 1 1 0.1577 10.0
pair_modify	tail yes

kspace_style	pppm/tip4p 1.0e-6

bond_style	harmonic
angle_style	harmonic
dihedral_style	none
improper_style	none

bond_coeff	1 450.0 0.9572
angle_coeff	1 55.0 104.52


# reset pair coeff
pair_coeff	* * 0.0 0.0

#OO
pair_coeff	2 2 0.21085 3.1668
#OH
pair_coeff	* 1 0.0000 0.0000

neighbor        2.0 bin
neigh_modify    every 1 delay 1 check no

timestep	2.0
fix		constraints all shake 0.000001 20 0 b 1 a 1
  0 = # of size 2 clusters
  0 = # of size 3 clusters
  0 = # of size 4 clusters
  6912 = # of frozen angles

group water type 1 2
20736 atoms in group water

#*********** SIMULATION PARAMETER TO ADJUST ****************
#Box dimensions
variable lx equal lx
variable ly equal ly
variable lz equal lz

### Temperature of the hot and cold regions ####
variable thi equal 375
variable tlo equal 215
variable runpressure equal 0.986923
# Configuration equilibrated in density and temperature

# Define dx here

variable lx equal lx
variable ly equal ly
variable lz equal lz

variable xlo equal xlo
variable xhi equal xhi


variable dx equal 2.0

### ADD IN DEFECTS AT THE CENTRE OF THE HOT THERMOSTAT ###
variable x1 equal ${lx}/4.0
variable x1 equal 435.562403116467/4.0
variable y1 equal ${ly}/2.0
variable y1 equal 23.5035287955254/2.0
variable z1 equal ${lz}/2.0
variable z1 equal 22.1584124296383/2.0

region kill1 sphere ${x1} ${y1} ${z1} 3
region kill1 sphere 108.890600779117 ${y1} ${z1} 3
region kill1 sphere 108.890600779117 11.7517643977627 ${z1} 3
region kill1 sphere 108.890600779117 11.7517643977627 11.0792062148192 3
delete_atoms region kill1 compress no bond yes mol yes
Deleted 15 atoms, new total = 20721
Deleted 10 bonds, new total = 13814
Deleted 5 angles, new total = 6907




variable thip equal ${thi}*2.0/3.0
variable thip equal 375*2.0/3.0
variable tlop equal ${tlo}*2.0/3.0
variable tlop equal 215*2.0/3.0
variable cbl equal ${lx}*3.0/4.0-${dx}
variable cbl equal 435.562403116467*3.0/4.0-${dx}
variable cbl equal 435.562403116467*3.0/4.0-2
variable cbh equal ${lx}*3.0/4.0+${dx}
variable cbh equal 435.562403116467*3.0/4.0+${dx}
variable cbh equal 435.562403116467*3.0/4.0+2
variable hbl equal ${lx}*1.0/4.0-${dx}
variable hbl equal 435.562403116467*1.0/4.0-${dx}
variable hbl equal 435.562403116467*1.0/4.0-2
variable hbh equal ${lx}*1.0/4.0+${dx}
variable hbh equal 435.562403116467*1.0/4.0+${dx}
variable hbh equal 435.562403116467*1.0/4.0+2


#***************************************************
## EQUILIBRATION PERIOD - to reach the steady state ###
#run 0

#reset the timestep to start your production run
reset_timestep 0

# define a group to perform averages
#group s1 type 1
###*** SYSTEM THERMOSTATTING: HOT and COLD regions ***###

fix NVE all nve
fix PRESS all press/berendsen aniso ${runpressure} ${runpressure} 500000 couple yz
fix PRESS all press/berendsen aniso 0.986923 ${runpressure} 500000 couple yz
fix PRESS all press/berendsen aniso 0.986923 0.986923 500000 couple yz


### Apply THERMOSTATS ###

#set up the "hot region" in the middle of the box
region hot block ${hbl} ${hbh} 0 ${ly} 0 ${lz} units box
region hot block 106.890600779117 ${hbh} 0 ${ly} 0 ${lz} units box
region hot block 106.890600779117 110.890600779117 0 ${ly} 0 ${lz} units box
region hot block 106.890600779117 110.890600779117 0 23.5035287955254 0 ${lz} units box
region hot block 106.890600779117 110.890600779117 0 23.5035287955254 0 22.1584124296383 units box


#set up the "cold region" at the left end of the box
region cold block ${cbl} ${cbh} 0 ${ly} 0 ${lz} units box
region cold block 324.67180233735 ${cbh} 0 ${ly} 0 ${lz} units box
region cold block 324.67180233735 328.67180233735 0 ${ly} 0 ${lz} units box
region cold block 324.67180233735 328.67180233735 0 23.5035287955254 0 ${lz} units box
region cold block 324.67180233735 328.67180233735 0 23.5035287955254 0 22.1584124296383 units box

#set up the "cold region" at the right end of the box
#region cold2 block ${h2bl} ${xhi} 0 ${ly} 0 ${lz} units box


#Cold regions  unification
#region cold union 2 cold1 cold2 units box

#Create group of cold molecules
####group cool_ice region cold
####group cool_ice include molecule

####compute cold_temp cool_ice temp
####fix cold_rescale water temp/rescale 1 ${tlo} ${tlo} 0.0001 1.0
####fix_modify cold_rescale temp cold_temp

#this calculates the temperature using only the atoms in the "hot region"
#compute hot_temp all temp/region hot

# calculate the temperature using only WATER in the "hot region"
compute hot_temp water temp/region hot

#this calculates the temperature using only WATER in the "cold region"
compute cold_temp water temp/region cold


#set up a basic velocity rescale for the hot region WATER with thip
fix hot_rescale water temp/rescale 1 ${thip} ${thip} 1.0 1.0
fix hot_rescale water temp/rescale 1 250 ${thip} 1.0 1.0
fix hot_rescale water temp/rescale 1 250 250 1.0 1.0
#change the thermostat to only act on the "hot region"
#this is done by passing it the "hot temp" compute that we defined above
fix_modify hot_rescale temp hot_temp

#set up a basic velocity rescale for the cold region
fix cold_rescale water temp/rescale 1 ${tlop} ${tlop} 1.0 1.0
fix cold_rescale water temp/rescale 1 143.333333333333 ${tlop} 1.0 1.0
fix cold_rescale water temp/rescale 1 143.333333333333 143.333333333333 1.0 1.0
#change the thermostat to only act on the "cold region"
#this is done by passing it the "cold temp" compute that we defined above
fix_modify cold_rescale temp cold_temp

### Ensure MOMENTUM CONSERVATION ###

#ensure that linear momentum is conserved despite the "thermostatting" by velocity rescaling
fix cons_mom all momentum 1 linear 1 1 1


thermo 100
thermo_style custom step pe etotal temp atoms vol press pxx pyy pzz lx ly lz xlo xhi f_cold_rescale f_hot_rescale

group ox type 2
6907 atoms in group ox
group hy type 1
13814 atoms in group hy
compute KE all ke/atom
variable TEMP atom c_KE*4186.8/(1.3806488*6.02214129)

compute cc1 all chunk/atom bin/1d x center 2 units box
#fix TPROFILE all ave/chunk 1 500 500 cc1 v_TEMP density/number file temp.dat
fix TPROFILEox ox ave/chunk 1 500 500 cc1 v_TEMP density/number file temp-ox.dat
fix TPROFILEhy hy ave/chunk 1 500 500 cc1 v_TEMP density/number file temp-hy.dat

compute orderparam ox orientorder/atom degrees 1 2 nnn 4 cutoff 3.5
compute cc2 ox chunk/atom bin/1d x center 2 units box
#fix ORDERPARAM all ave/chunk 1 500 500 cc2 c_orderparam[1] file order-param.dat
fix ORDERPARAM all ave/chunk 1 500 500 cc2 c_orderparam[1] file order-param.dat

restart 50000 config.restart

run 500000
PPPM initialization ...
  extracting TIP4P info from pair style
WARNING: Using 12-bit tables for long-range coulomb (../kspace.cpp:316)
  G vector (1/distance) = 0.345551
  grid = 405 48 48
  stencil order = 5
  estimated absolute RMS force accuracy = 0.000406874
  estimated relative force accuracy = 1.22529e-06
  using double precision FFTs
  3d grid and FFT values/proc = 67260 38880
Neighbor list info ...
  2 neighbor list requests
  update every 1 steps, delay 1 steps, check no
  max neighbors/atom: 2000, page size: 100000
  master list distance cutoff = 12.3154
  ghost atom cutoff = 12.3154
  binsize = 6.1577 -> bins = 71 4 4
Memory usage per processor = 12.7936 Mbytes
Step PotEng TotEng Temp Atoms Volume Press Pxx Pyy Pzz Lx Ly Lz Xlo Xhi cold_res hot_resc 
       0   -103773.49   -94851.845    216.68192    20721    226841.28   -243.46826    9.6339858   -269.00313   -471.03563     435.5624    23.503529    22.158412   0.25639844     435.8188            0            0 
     100   -103622.67    -94586.64    219.45996    20721    226436.87    74.246611   -9.0060204    40.128193    191.61766    435.13564    23.494081    22.149505   0.46977901    435.60542   -7.3287535   -273.02278 
     200   -103627.77   -94556.765    220.30951    20721    226450.24   -26.684757    88.307723   -43.459371   -124.90262     435.0938    23.495904    22.151224   0.49069755     435.5845   -21.682525   -285.18634 
     300    -103406.2   -94444.225    217.66134    20721    226443.99    96.589479    198.80593    74.841845    16.120668    435.27473    23.490696    22.146314   0.40023309    435.67497   -26.568493   -397.15381 
     400   -103350.52   -94332.475    219.02326    20721    226594.13   -56.775408   -84.406004    218.41737   -304.33759    435.31561    23.497379    22.152614   0.37979292    435.69541    -25.56512   -500.08819 
     500   -103422.52    -94335.66     220.6945    20721    226485.72    33.518298    -17.64324    227.89912   -109.70099    435.29798    23.492233    22.147763   0.38861096    435.68659    -26.02386   -506.67623 
     600   -103454.86   -94350.615    221.11667    20721    226378.72   -63.526692   -3.2557541   -131.67364   -55.650687    435.18771    23.489659    22.145336   0.44374581    435.63145   -13.954703   -501.49939 
     700   -103435.18   -94331.434    221.10458    20721    226342.22    23.209094    38.455749   -100.47883    131.65036    435.07445    23.490822    22.146433    0.5003757    435.57482   -16.754344   -525.35409 
     800   -103314.29   -94303.201    218.85417    20721    226295.03    77.615842    23.902887    127.53359    81.411046    435.01333    23.490023     22.14568   0.53093736    435.54426   -15.510582   -559.02297 
     900   -103510.28   -94349.202    222.49712    20721    226435.61   -41.144566   -8.9272563      53.8512   -168.35764    435.02211    23.497081    22.152334   0.52654545    435.54865  -0.34329887   -520.69058 
    1000   -103372.58   -94314.973    219.98397    20721    226353.06   -10.478776   -11.398347    8.0319332   -28.069916    435.19675    23.488083    22.143851   0.43922723    435.63597   -6.0217278   -551.70715 
    1100   -103444.47   -94271.689    222.78126    20721    226527.86   -55.803895   -34.001286    -74.79152   -58.618879    435.29655    23.494457     22.14986   0.38932604    435.68587    -9.570291   -587.25862 
    1200   -103461.79   -94222.634    224.39344    20721    226457.99    31.238449    9.7044404   -17.802189     101.8131    435.21855    23.492938    22.148428    0.4283253    435.64687   -7.5188105   -644.79761 
    1300   -103260.33   -94121.089     221.9668    20721    226357.05   -36.938741  -0.26310383   -121.97109    11.417966    434.99606    23.493708    22.149154   0.53957065    435.53563   -13.055553   -737.53834 
    1400   -103315.86    -94136.61    222.93847    20721    226387.21    95.421065    28.506566    91.288268    166.46836    435.01182    23.494848    22.150228   0.53168815    435.54351    15.966381   -760.42187 
    1500   -103338.18   -94095.702    224.47413    20721    226676.67   -27.500091   -32.038023    65.732152    -116.1944    435.54994    23.495335    22.150688   0.26262785    435.81257   -4.0115528   -769.90543 
    1600      -103307   -94129.313    222.90055    20721    226481.09    10.661367    115.59668    46.658357   -130.27093    435.15807    23.495769    22.151097   0.45856388    435.61664    2.6288576    -749.5268 
    1700   -103258.43   -94092.356    222.61833    20721    226429.44    105.58534     109.7159    22.909768    184.13036    435.37732    23.487174    22.142993   0.34893906    435.72626  -0.53359964   -790.10159 
    1800   -103247.28   -94069.525    222.90219    20721    226455.49    80.783661    232.19834    93.773033   -83.620388    435.33956    23.489543    22.145227   0.36781907    435.70738    11.644525   -826.12522 
    1900   -103198.67   -94036.853    222.51504    20721     226495.9   -38.431674   -173.37056   -229.48976     287.5653    435.31565    23.492284    22.147812    0.3797764    435.69542    2.4437528    -841.0403 
    2000   -103247.15   -94044.662    223.50271    20721     226585.6   -29.956919   -91.619075   -281.82947    283.57779    435.18001    23.500597    22.155648   0.44759579     435.6276    23.295802   -853.85027 
    2100    -103278.7   -94053.872    224.04546    20721    226365.88   -19.685048   -85.890714    36.903781    -10.06821    435.16721    23.489545    22.145229   0.45399555     435.6212    30.196874   -857.91223 
    2200   -103237.22   -93993.343    224.50803    20721    226316.25   -14.253488    37.427168    8.9392848   -89.126917    435.17889    23.486656    22.142505   0.44815518    435.62704    22.124275   -914.24516 
    2300   -103258.96   -93993.544    225.03122    20721    226371.64    -38.13073   -240.23548    220.73992   -94.896626    435.11196    23.491336    22.146917   0.48161978    435.59358    16.782058   -906.47594 
    2400   -103207.95   -93895.362    226.17689    20721    226557.78  -0.13810667    134.77372     156.2054   -291.39344    435.31934    23.495394    22.150743   0.37792854    435.69727    30.104111   -1014.9834 
    2500   -103168.75   -93887.672    225.41149    20721     226352.7    12.741276   -33.770711    57.438939      14.5556    435.43202    23.481718     22.13785   0.32159201    435.75361      30.7665   -1030.6665 
    2600   -103154.13   -93872.378     225.4278    20721    226662.05   -18.822489    12.389553   -68.261725  -0.59529402    435.28152    23.501821    22.156802   0.39684167    435.67836    12.902826   -1019.3266 
    2700    -103248.4   -93872.104    227.72402    20721    226341.77   -61.780512    35.075954   -237.63403    17.216536    435.14016    23.489025    22.144738   0.46751956    435.60768    15.288453   -1029.0659 
    2800   -103107.92   -93831.487    225.29863    20721    226533.42    12.572094    -29.22214   -162.49282    229.43124    435.36048     23.49302    22.148505   0.35736097    435.71784   -5.3361982   -1049.1398 
    2900   -103197.68   -93838.992    227.29636    20721    226454.55     76.43802   -87.923526    286.02286    31.214723    435.18208    23.493744    22.149188   0.44656239    435.62864  -0.84795924   -1052.8334 
    3000   -103076.42   -93779.284    225.80141    20721    226412.98   -43.697862   -3.0817042    289.98857   -418.00045    435.10482    23.493673    22.149121   0.48519007    435.59001    16.903587   -1125.2535 
    3100   -103210.29   -93795.996    228.64707    20721    226609.84   -10.845587    36.466592    33.715195   -102.71855    435.21354    23.500949     22.15598   0.43083162    435.64437   -6.8093277   -1083.1783 
    3200   -103075.15   -93798.529    225.30338    20721    226504.58   -31.287694     170.0589    47.681938   -311.60392    435.25572    23.494352     22.14976   0.40973978    435.66546    11.163297   -1100.2964 
    3300   -103099.67   -93756.599    226.91705    20721    226711.26    7.7233588   -172.73004    100.93748     94.96264    435.43812    23.500145    22.155222   0.31854177    435.75666    17.150737   -1144.3946 
    3400   -103110.96   -93774.316    226.76116    20721    226652.18   -10.515245    46.424378    104.55941   -182.52953    435.32661    23.500092    22.155172   0.37429544     435.7009    7.1100782   -1119.3326 
    3500   -103053.85   -93715.164    226.81069    20721    226675.37    10.981149   -15.110942    -131.4496    179.50399    435.33031    23.501194    22.156211   0.37244581    435.70275   -7.1134684   -1165.4362 
    3600   -103160.23   -93688.401    230.04442    20721     226765.7    -26.14439     64.21916   -190.73886     48.08653    435.45198    23.502592    22.157529   0.31160862    435.76359   -13.142928   -1182.6844 
    3700   -102937.64   -93671.601    225.04619    20721    226712.09     55.39796    10.153122    122.81812    33.222634    435.40482    23.501086     22.15611   0.33518914    435.74001   -20.740293   -1196.3954 
    3800   -103049.51   -93602.887    229.43212    20721    226650.11   -46.534388    100.09738    88.657696   -328.35824    435.54452    23.494105    22.149528   0.26533863    435.80986   -9.7423074   -1274.3931 
    3900   -102989.57   -93609.834    227.80773    20721    226691.83    45.465501   -182.03663    321.72408    -3.290947    435.37754    23.500773    22.155814   0.34883017    435.72637   -14.555026   -1267.6363 
    4000   -103010.19   -93605.033    228.42496    20721    226690.13    54.429265    218.77043    -191.1373    135.65467    435.50427    23.497265    22.152507   0.28546614    435.78973   -6.2938221   -1282.2942 
    4100   -102962.12   -93535.265    228.95207    20721    226681.76     10.49922   -105.76333   -182.95686    320.21785    435.49731    23.497019    22.152275   0.28894419    435.78626   -28.555584    -1327.673 
    4200   -102957.72   -93481.526    230.15043    20721     226580.5   -109.50203   -2.7444736   -334.33686    8.5752485    435.48949    23.491981    22.147526   0.29285524    435.78234   -47.442908   -1361.9107 
    4300   -102987.69   -93546.108    229.30961    20721    226680.58    45.061711    32.455355   -226.31231    329.04209    435.41209    23.499257    22.154385   0.33155353    435.74365   -18.754721   -1330.7644 
    4400   -102898.94   -93501.973    228.22604    20721    226517.23    26.213461   -73.365835     308.3516   -156.34539    435.44999    23.489766    22.145437   0.31260484     435.7626   -26.342211   -1370.3755 
    4500    -102944.7   -93473.088    230.03902    20721    226507.27   -33.024814   -54.690964    53.611316   -97.994794    435.37282    23.491331    22.146913   0.35119244    435.72401   -26.261126   -1398.2095 
    4600   -102967.99   -93475.828    230.53825    20721    226677.02   -27.425566    48.865775   -93.948989   -37.193483    435.41315    23.499044    22.154184   0.33102699    435.74417   -44.769844   -1373.8974 
    4700   -102930.68   -93397.945    231.52368    20721    226782.47   -8.5172067   -17.088483    176.45096   -184.91409    435.50933    23.501914     22.15689   0.28293436    435.79227   -54.085945   -1440.3478 
    4800    -102810.5   -93385.505    228.90697    20721    226758.84    26.267855   -20.580278   -73.102245    172.48609     435.4096     23.50338    22.158272   0.33279975     435.7424   -53.623149   -1456.2062 
    4900   -103016.79   -93396.406    233.65223    20721    226672.44   -13.902518   -79.131953   -225.44608    262.87048    435.37396    23.499864    22.154957   0.35061772    435.72458   -44.124866     -1457.11 
    5000   -102843.01   -93388.751    229.61769    20721     226802.4    -32.93661    25.373574   -38.019051   -86.164351    435.56785    23.501367    22.156374   0.25367365    435.82153   -45.874315    -1460.403 
    5100   -102901.29     -93353.8    231.88198    20721     226648.1   -27.370329   -31.298776   -241.78488    190.97267    435.57039    23.493303    22.148772   0.25240624    435.82279   -72.407859   -1473.2794 
    5200   -102800.07   -93305.459     230.5976    20721    226858.99    53.523879   -39.106726   -27.819866    227.49823    435.37097    23.509613    22.164149   0.35211474    435.72309   -62.647136   -1529.5112 
    5300   -102826.67   -93321.189    230.86167    20721    226727.51   -81.233208   -188.31429    152.98548   -208.37081    435.45307    23.500584    22.155636   0.31106732    435.76413   -45.883757   -1529.7374 
    5400   -102766.03   -93282.537    230.32765    20721    226786.79    35.732099    194.36458    89.984607   -177.15289    435.36125    23.506134    22.160869   0.35697651    435.71822   -73.454802    -1546.127 
    5500   -102777.44   -93273.235    230.83054    20721    226693.62    26.095733    144.53999   -162.93643    96.683641    435.34828    23.501655    22.156646   0.36345878    435.71174   -36.243372   -1597.6915 
    5600   -102867.46   -93268.096    233.14189    20721    226747.58   -58.764181   -103.95288    41.093421   -113.43308    435.33344    23.504853    22.159661   0.37088068    435.70432   -32.229846   -1605.5711 
    5700   -102904.24   -93288.027     233.5509    20721    226742.19   -72.010439   -288.43928    162.35824   -89.950276    435.38735    23.503118    22.158025   0.34392465    435.73128    -42.29599   -1575.3029 
    5800   -102797.49   -93252.272    231.82667    20721    226489.91    -16.69246   -48.779394     -80.7748    79.476814    435.16685     23.49599    22.151305    0.4541774    435.62102   -49.199246    -1611.172 
    5900   -102780.05   -93276.907    230.80487    20721     226605.6   -44.518734   -47.483529   -187.08486    101.01219    435.33905    23.497341    22.152579   0.36807271    435.70713   -25.776328   -1606.7676 
    6000   -102834.36   -93284.643    231.93609    20721     226801.2    72.604572   -14.490944   -210.84814     443.1528    435.57073    23.501228    22.156243   0.25223653    435.82296   -36.682046   -1591.0608 
    6100   -102789.55    -93249.75    231.69509    20721    226811.25   0.94099768    24.369502    88.580992    -110.1275    435.62558    23.500269    22.155339   0.22481121    435.85039   -24.735297   -1636.2825 
    6200   -102853.26    -93186.88    234.76942    20721    226952.41   -37.487832   -106.61825   -110.20454     104.3593    435.66395    23.506545    22.161256   0.20562623    435.86957     -32.6644   -1686.8965 
    6300   -102765.77   -93224.915    231.72078    20721    226871.39    62.195368   -101.25687    254.22171    33.621258    435.44981    23.508127    22.162748   0.31269641     435.7625   -23.773966   -1662.6325 
    6400   -102700.23   -93217.114    230.31856    20721    226617.76    20.843101    88.760361   -121.46782    95.236764    435.40835    23.496101     22.15141   0.33342445    435.74178   -36.355333   -1663.7453 
    6500   -102817.15   -93232.369    232.78764    20721    226922.56   -8.9746831    9.1655102    61.086393   -97.175952    435.85386    23.499878     22.15497   0.11067214    435.96453   -16.207233   -1662.2485 
    6600   -102808.79   -93179.218     233.8754    20721     226765.7   -45.110427   -114.09612   -232.70366     211.4685    435.36722     23.50488    22.159686   0.35399128    435.72121   -39.675525   -1695.1509 
    6700   -102742.95   -93156.496     232.8283    20721    226946.98      13.2171    138.95696   -14.008295   -85.297365    435.46299    23.511687    22.166104   0.30610451     435.7691   -46.910108    -1708.206 
    6800   -102809.77   -93175.184    233.99723    20721    226954.55   -79.735765   -62.942292    -130.7278     -45.5372    435.50449    23.510959    22.165418   0.28535441    435.78985   -38.630805   -1695.5947 
    6900   -102762.58   -93205.353    232.11846    20721    226876.75    109.52285    89.037641   -145.59517    385.12608    435.59184    23.504572    22.159395    0.2416781    435.83352   -8.4912307   -1708.0165 
    7000    -102775.9   -93154.241    233.68321    20721    227017.98   -27.225124    50.211068   -113.71106   -18.175383    435.62797    23.510911    22.165372   0.22361273    435.85159   -22.904439    -1732.957 
    7100   -102751.59   -93151.863    233.15058    20721    226898.58   -15.512274    59.781494   -128.17408    21.855761    435.43611    23.509905    22.164424   0.31954407    435.75566   -17.609224   -1746.4764 
    7200   -102778.77   -93170.148    233.36656    20721    227050.22   -18.819679    120.39307   -231.40793    54.555826    435.62396    23.512689    22.167048   0.22561941    435.84958   -1.7531318   -1741.8047 
    7300   -102752.37   -93118.482    233.98031    20721    226860.66   -9.8348297    91.627265   -314.49947    193.36771      435.553    23.504786    22.159598   0.26110225     435.8141   -51.301421   -1750.1283 
    7400   -102811.84   -93130.176    235.14057    20721    226801.61    -12.87582     66.70532    100.78764   -206.12042    435.37368    23.506566    22.161276   0.35075945    435.72444   -15.700432   -1778.5946 
    7500   -102762.99   -93109.032    234.46764    20721    226914.34   -75.987877   -55.001214    173.72147   -346.68389    435.53292    23.508109     22.16273   0.27114235    435.80406   -40.456211   -1766.5975 
    7600   -102658.21   -93107.092    231.97009    20721    227031.43    8.0933359    58.360625    24.309021   -58.389638    435.54834    23.513757    22.168055   0.26342816    435.81177   -33.797535   -1776.2996 
    7700   -102681.55   -93064.323    233.57561    20721    226855.65   -23.126511   -245.07187    50.454515    125.23782    435.51091    23.505663    22.160424   0.28214694    435.79305   -36.371362   -1822.4037 
    7800   -102638.75    -93080.98    232.13164    20721    226863.31   -8.8050598    57.033931    63.422354   -146.87146    435.39641     23.50915    22.163712   0.33939447    435.73581   -17.489248    -1824.453 
    7900    -102717.9   -93057.864    234.61527    20721    226857.96   -8.9781309    161.67162    161.89094   -350.49696    435.34091    23.510371    22.164863   0.36714532    435.70805   -25.729242   -1842.7262 
    8000   -102619.46    -93029.64    232.90991    20721    226909.31   -8.6389529    3.2058297    -260.1158    230.99311    435.42045    23.510884    22.165347   0.32737555    435.74782   -11.385909   -1882.3934 
    8100   -102488.06   -92924.684    232.26787    20721     226669.9   -5.3199302   -63.682459   -389.00238    436.72505     435.0506    23.508464    22.163066   0.51230075     435.5629    -45.63472   -1961.1624 
    8200   -102632.78    -92989.19    234.21595    20721     226906.7    13.225042    102.36021   -49.141114   -13.543969    435.30539    23.513856    22.168148   0.38490475     435.6903   -12.384086   -1925.7364 
    8300   -102564.48   -92955.496    233.37543    20721    226662.04   -12.371651   -135.02109    231.30711   -133.40097    435.48813    23.496244    22.151545   0.29353531    435.78166   -18.928747   -1959.8709 
    8400    -102589.9    -92967.44     233.7028    20721    226898.99    96.017933    113.00369   -123.81159     298.8617    435.51958    23.507674     22.16232   0.27781154    435.79739   -20.401561   -1946.6636 
    8500   -102580.41   -92930.007     234.3814    20721     226902.9   -11.857261   -31.564163   -46.433695    42.426076    435.27579    23.514458    22.168716   0.39970366     435.6755   -48.551502   -1952.3886 
    8600   -102592.72   -92923.691    234.83389    20721     226961.9    65.130268    275.38799   -216.06558    136.06839    435.30954    23.516604    22.170739   0.38283176    435.69237   -31.334837   -1976.6685 
    8700   -102459.74   -92895.295    232.29376    20721    226888.97   -1.7964177    94.948738   -110.70754    10.369548    435.29056    23.513338     22.16766   0.39231971    435.68288   -46.044255   -1989.8077 
    8800   -102624.62   -92906.179    236.03396    20721    226991.29    2.6926741     90.47492    44.135255   -126.53215    435.53575    23.512018    22.166416   0.26972367    435.80548    -22.21312   -2002.0343 
    8900   -102615.02   -92888.883    236.22065    20721    226803.99   -39.060965   -152.21589   -25.819278     60.85227    435.51423    23.502896    22.157816   0.28048467    435.79472   -36.423442   -2009.8721 
    9000   -102505.26   -92861.595    234.21773    20721    226765.32     13.22537    56.317578    48.451137   -65.092603    435.54578    23.500042    22.155125    0.2647113    435.81049   -19.178844   -2058.0854 
    9100   -102536.75   -92860.833    235.00107    20721    226892.02   -40.288661   -207.30022    41.661796    44.772441     435.5998    23.505148    22.159939   0.23770195     435.8375   -28.288316   -2043.5757 
    9200   -102595.52   -92833.463    237.09308    20721    226810.64    -24.18263   -160.41228    85.401011    2.4633825    435.47157    23.504392    22.159226   0.30181411    435.77339   -29.062934   -2075.8433 
    9300   -102453.11   -92872.222    232.69312    20721     226929.4    58.927673     52.31671    16.626493    107.83982    435.64547    23.505852    22.160602   0.21486293    435.86034   -16.972746   -2049.5176 
    9400   -102487.62    -92779.09    235.79319    20721    227038.06    74.801381    104.44978     30.55403    89.400334    435.54268    23.514253    22.168523   0.26626014    435.80894   -27.831144   -2130.1541 
    9500   -102428.85   -92797.978    233.90705    20721    227016.85    38.260285    23.879853    189.24481   -98.343805     435.6419    23.510477    22.164963   0.21665029    435.85855   -39.744309   -2100.7451 
    9600   -102412.81   -92774.995    234.07576    20721    226882.84    77.587861   -2.8697084    54.327407    181.30588    435.68672    23.502328     22.15728   0.19423846    435.88096   -26.611948   -2144.0103 
    9700   -102485.78   -92736.149    236.79133    20721    226955.99   -8.6738445   -107.29725   -70.164919    151.44063    435.44245    23.512708    22.167067   0.31637523    435.75882   -48.326075   -2154.7087 
    9800   -102456.92   -92721.898     236.4365    20721     226832.3    94.924336    166.09831   -127.07486    245.74955    435.47371    23.505457     22.16023   0.30074662    435.77445   -50.875313   -2176.2886 
    9900   -102409.95   -92659.392    236.81388    20721    226904.77   -23.115053    63.513144    -14.66003   -118.19827    435.53443    23.507572    22.162224   0.27038297    435.80482   -50.997571   -2229.9746 
   10000   -102432.87   -92661.683      237.315    20721    226804.45    44.295589    141.79025    192.03703   -200.94052    435.36232     23.50702    22.161704    0.3564381    435.71876   -53.454497   -2233.6615 
   10100   -102439.56   -92647.716    237.81672    20721    226924.82   -20.801657    120.15324   -191.51799    8.9597846    435.59165    23.507067    22.161748   0.24177336    435.83343   -25.381328    -2271.347 
   10200   -102420.87   -92618.612    238.06962    20721    226829.05   -32.762847   -56.507559    19.368466    -61.14945    435.32068    23.509419    22.163966   0.37725896    435.69794   -24.464954   -2303.3946 
   10300   -102398.74   -92608.813    237.76997    20721    226969.35    28.860048    127.25236   -265.37852    224.70631    435.62454    23.508486    22.163086   0.22532857    435.84987   -31.899865   -2305.3073 
   10400   -102319.32   -92565.561    236.89153    20721    226907.88    -66.37469   -100.08594   -32.359992   -66.678134    435.56116    23.507012    22.161697   0.25702015    435.81818   -54.914642   -2322.2807 
   10500   -102428.79   -92587.783    239.01054    20721    226670.74    13.634243    10.511644    225.08369    -194.6926    435.31703    23.501313    22.156323   0.37908444    435.69612   -52.611117   -2316.6392 
   10600   -102315.18   -92571.398    236.64921    20721    226613.46   -3.4661882    76.808036    75.510224   -162.71682    435.16573    23.502427    22.157374   0.45473353    435.62047   -44.814725   -2341.8422 
   10700   -102418.56   -92627.634    237.79429    20721    226739.48    28.937018    149.42082    -193.4725    130.86273    435.41017    23.502361    22.157312   0.33251397    435.74269   -23.076297   -2306.9065 
   10800   -102403.76    -92632.83    237.30859    20721    226832.91    44.562042    106.90295    83.692755   -56.909582    435.39456    23.507625    22.162274   0.34031776    435.73488   -24.195143   -2297.7005 
   10900   -102334.74   -92646.926    235.29004    20721    226796.91    10.965597    34.091914    25.398539   -26.593662    435.38259    23.506082     22.16082   0.34630547    435.72889    -7.110934     -2301.52 
   11000   -102344.67   -92619.353    236.20073    20721    226675.34   -4.8864138   -48.802079    161.54865   -127.40581    435.42674     23.49859    22.153756   0.32422907    435.75097   -16.515471   -2324.2483 
   11100   -102369.46   -92599.329    237.28914    20721    226691.18    3.5648402   -90.708403   -21.478409    122.88133    435.20079    23.505511    22.160281   0.43720625    435.63799     -12.4405   -2348.9675 
   11200   -102428.16   -92590.765     238.9229    20721    226634.44   -5.6399443     120.1492    155.87769   -292.94673    435.35754    23.498337    22.153518   0.35882864    435.71637    -2.187994   -2371.7817 
   11300   -102351.34   -92572.241    237.50716    20721    226578.14   -20.311329    69.151163   -180.06562    49.980473    435.40153    23.494231    22.149647   0.33683677    435.73836   0.84063859   -2393.9791 
   11400   -102374.45   -92622.501    236.84754    20721    226950.81    23.854733    69.920745    -88.05126    89.694712    435.68778    23.505819    22.160572   0.19370951    435.88149    21.720943   -2359.0897 
   11500   -102391.81   -92611.767       237.53    20721    226867.12   -17.445368    -83.95708    38.844404   -7.2234294    435.47172    23.507314    22.161981   0.30173964    435.77346    26.774466     -2375.23 
   11600   -102358.29   -92632.976    236.20074    20721    226732.53    19.511853   -95.010521   -23.045614    176.59169    435.34699    23.503707     22.15858   0.36410472     435.7111    33.172444   -2365.3917 
   11700   -102334.37   -92603.382    236.33847    20721    226662.69   -66.598482    -100.7994   -218.99655     120.0005    435.24289    23.502897    22.157816   0.41615478    435.65905    25.431474   -2386.8449 
   11800   -102373.23   -92591.317    237.57549    20721    226814.07    13.498469    4.5383335   -1.7086217    37.665694    435.60367    23.501006    22.156034   0.23576526    435.83943    25.228312   -2397.9985 
   11900   -102287.68   -92536.381    236.83178    20721    226733.53   -33.845898     10.58903   -98.621141   -13.505584     435.6296    23.496134     22.15144   0.22280144     435.8524     20.06022   -2448.4673 
   12000   -102371.15   -92516.976    239.33046    20721    226802.48   -56.080363   -97.532843    93.862731   -164.57098    435.50938    23.502949    22.157866   0.28291052    435.79229   -5.9036647   -2441.7965 
   12100   -102315.72   -92517.358    237.97484    20721    226748.48   -86.755361    85.726842   -29.282474   -316.71045    435.59216    23.497918    22.153122   0.24151908    435.83368   -1.1535874   -2446.0386 
   12200    -102213.6   -92499.098    235.93809    20721    226704.55    42.201877   -93.380947    166.50739    53.479185    435.10853    23.508696    22.163284   0.48333472    435.59187   -9.2463109   -2465.8144 
   12300   -102262.32   -92482.874    237.51555    20721    226773.44   -50.130202   -41.412161   -62.743188   -46.235258    435.17777    23.510397    22.164887   0.44871317    435.62649   -6.3191219   -2480.8121 
   12400   -102240.48    -92468.39    237.33689    20721     226831.3    22.589627   -82.724229   -284.61427    435.10738    435.45145    23.506006    22.160747    0.3118731    435.76333   -12.983563   -2489.9617 
   12500   -102266.85   -92460.849     238.1605    20721    226530.37    -50.15377     68.18811   -278.86991    60.220494    435.31437    23.494106    22.149529   0.38041296    435.69479   -12.886526    -2507.046 
   12600   -102222.56   -92420.732    238.05908    20721    226666.64    38.720361    44.158877    110.64335    -38.64114    435.31011    23.501287    22.156299   0.38254367    435.69266   -31.640497   -2525.9199 
   12700   -102042.02   -92362.682    235.08422    20721    226632.82    27.775971   -38.595716    185.57568   -63.652055    435.15953    23.503599    22.158478   0.45783288    435.61737   -25.415513   -2590.2876 
   12800   -102260.34   -92394.015    239.62564    20721    226744.84    -64.84851   -60.548806    -344.8817    210.88498    435.17377    23.509022    22.163591   0.45071411    435.62449   -9.8882799   -2570.4553 
   12900   -102228.77    -92364.79    239.56861    20721    226606.75   -2.9352251    6.2603686   -128.31671    113.25067    435.00946    23.506301    22.161026   0.53286781    435.54233   -15.444888   -2600.8205 
   13000   -102178.49   -92345.283    238.82123    20721    226516.94     32.56035    97.394579    -1.006003    1.2924741    434.99994    23.501899    22.156876   0.53763121    435.53757   -12.048218   -2628.6963 
   13100   -102230.56   -92337.097    240.28475    20721    226492.19   -57.314608    133.69435   -100.56295   -205.07521    435.09949    23.497927    22.153131   0.48785701    435.58734   -13.655747   -2634.8489 
   13200   -102215.63   -92332.318    240.03817    20721     226519.9   -7.1223743   -252.06963    221.40935    9.2931592    435.06821    23.500209    22.155282   0.50349699     435.5717    1.4837529   -2657.1756 
   13300    -102076.1    -92309.86    237.19486    20721    226612.15    20.558669    146.01157     141.9697   -226.30525    434.82076    23.511681    22.166098   0.62722049    435.44798   -18.803075   -2658.5805 
   13400   -102183.52   -92319.468    239.57023    20721    226574.55   -47.096142    100.56384    36.676794   -278.52906    434.94412    23.506396    22.161116   0.56553939    435.50966   -29.933264   -2639.2876 
   13500   -102100.23   -92304.396    237.91358    20721    226606.01   -16.116938   -119.71198   -44.497443    115.85861    435.21285    23.500769     22.15581   0.43117307    435.64403   -37.469852   -2647.8021 
   13600   -102196.46   -92304.774    240.24139    20721    226757.83   -17.288239   -131.90933   -170.22691    250.27152    435.07121    23.512467    22.166839   0.50199652     435.5732   -21.183104   -2661.5515 
   13700   -102165.33   -92271.594     240.2914    20721    226698.82   -67.519655    44.161178    62.465689   -309.18583    435.08823    23.508947     22.16352   0.49348399    435.58172   -6.5227552   -2708.4365 
   13800   -102075.15    -92260.79    238.36334    20721     226671.4    44.024209   -61.245167    184.94632    8.3714761    435.06529    23.508145    22.162764   0.50495359    435.57025   -5.2818413   -2727.4731 
   13900   -102159.55   -92269.407    240.20407    20721    226696.86   -22.309998     -40.9975    79.350221   -105.28271    434.87067    23.514725    22.168968   0.60226625    435.47293   -10.434213    -2710.095 
   14000   -102060.73   -92237.894    238.56937    20721    226449.45   -24.435618   -133.59091     177.5463   -117.26224    434.68974     23.50678    22.161478   0.69272751    435.38247    -31.46722   -2728.9111 
   14100   -102178.06   -92203.778    242.24762    20721    226613.21   -50.606759   -54.729255     149.9308   -247.02182    434.90783    23.509382    22.163931   0.58368623    435.49151   -36.777879   -2754.7016 
   14200   -102058.56   -92225.517     238.8171    20721    226409.34   -41.028084    22.017782    148.30571   -293.40774    434.54087    23.508725    22.163311    0.7671641    435.30804   -39.200685   -2737.0344 
   14300   -102085.23   -92180.578     240.5565    20721    226448.38   -61.803628   -102.89569   -135.11959    52.604392    434.83494      23.5028    22.157725   0.62013107    435.45507   -33.234388   -2785.7897 
   14400   -102112.13   -92209.471    240.50804    20721    226380.11   -132.27835   -149.56037   -292.97333    45.698664    434.69581    23.503017     22.15793    0.6896966     435.3855   -10.632281   -2779.0834 
   14500   -102091.35   -92178.114    240.76483    20721    226378.28    39.395081   -80.905055    28.680317    170.40998     434.7373    23.501801    22.156783   0.66894902    435.40625  -0.90198569   -2829.8199 
   14600   -101988.87    -92161.56    238.67809    20721    226348.05       59.672     -86.8159     324.6195   -58.787597    434.59867    23.503979    22.158837   0.73826377    435.33694   -28.358649   -2819.7817 
   14700   -101987.94    -92138.63    239.21231    20721    226279.55    59.034171    259.92262   -187.04588    104.22578     434.5268    23.502366    22.157316   0.77419955      435.301   -32.051288   -2842.9371 
   14800   -102054.74    -92119.17    241.30722    20721    226310.33   -98.063725   -110.87107    10.290567   -193.61067    434.85007    23.495226    22.150585   0.61256498    435.46264   -30.296244   -2856.8487 
   14900   -102005.94   -92074.128    241.21596    20721    226330.85    6.3271272   -78.690141   -250.22559    347.89711    434.57063    23.503845     22.15871   0.75228624    435.32291   -54.487185   -2882.4724 
   15000   -101917.58   -92052.393    239.59787    20721    226328.97     103.2877    153.05308   -10.412712    167.22272    434.49062    23.505911    22.160658   0.79228952    435.28291   -34.981853   -2929.0804 
   15100   -101932.82   -92017.272    240.82092    20721    226290.53    4.5097385    -139.4434   -124.73186    277.70447    434.79699    23.495632    22.150968   0.63910452     435.4361   -45.426324   -2952.8396 
   15200    -101883.6   -92050.687    238.81403    20721    226348.79   -6.3946519    73.778397   -120.29181    27.329456    434.77541     23.49924    22.154369    0.6498933    435.42531   -25.972884   -2938.2343 
   15300   -102079.19    -92091.48    242.57352    20721    226344.58   -98.366971   -166.78588   -30.332669    -97.98236    434.70289    23.500981    22.156011    0.6861532    435.38905   -34.989548    -2886.185 
   15400   -101953.61   -92098.989    239.34135    20721    226232.33    57.912403    54.790371    247.75007   -128.80324    434.49246    23.500842    22.155879   0.79136798    435.28383   -13.879061   -2910.4484 
   15500   -102015.49   -92069.115    241.56979    20721     226191.5    6.4186691   -92.744077    306.18726   -194.18718    434.45391    23.499764    22.154863   0.81064607    435.26455    -30.83974   -2925.0734 
   15600   -102003.06   -92060.312    241.48156    20721     226231.6   -38.662425    82.969047   -67.698532   -131.25779    434.39698    23.503387    22.158279   0.83911167    435.23609   -37.486232   -2924.1824 
   15700   -101939.13   -92074.362    239.58775    20721    226146.37    68.245295   -91.077196   -160.65502     456.4681    434.18147    23.504791    22.159602   0.94686665    435.12833   -32.041406   -2924.4656 
   15800   -101966.28   -92089.893    239.86998    20721    226167.68     16.33922    -207.4612   -67.228507    323.70736    434.38657    23.500348    22.155414   0.84431476    435.23089   -30.071256   -2908.5601 
   15900   -101814.18   -92047.443    237.20679    20721    226336.62    126.45677    81.262361    152.44227    145.66567    434.40332     23.50867    22.163259   0.83593924    435.23926   -39.680222    -2943.642 
   16000   -101899.28   -92008.872    240.21054    20721    226245.44     35.10504   -23.181599    124.05692    4.4398021    434.39647     23.50412     22.15897   0.83936532    435.23583   -32.768891   -2989.1725 
   16100   -101869.48   -91990.979    239.92127    20721    226133.67    14.779903    58.773166   -126.15128    111.71783    434.28783    23.501252    22.156266    0.8936858    435.18151   -42.453983   -3000.1529 
   16200   -101802.76   -91982.051    238.51758    20721    226278.78    31.393168   -30.954367    36.860015    88.273856    434.35622     23.50694    22.161629   0.85948955    435.21571    -25.02993   -3022.7451 
   16300   -101791.52   -91962.344    238.72325    20721    226149.14   -68.551784    71.932782    68.898352   -346.48649    434.20529     23.50429     22.15913   0.93495475    435.14025   -36.029298   -3031.2361 
   16400   -101826.49   -91887.405    241.39256    20721    226295.58    39.170247   -19.960829    271.34458   -133.87301    434.10728    23.514552    22.168805   0.98395771    435.09124   -28.075239   -3117.5787 
   16500   -101734.19   -91866.115    239.66801    20721    226445.35   -36.477617    58.610626   -136.28585   -31.757628    434.21286    23.519472    22.173443   0.93116885    435.14403   -35.788949    -3120.654 
   16600   -101695.46   -91868.756    238.66329    20721    226278.71    113.64094     141.6394   -46.954304    246.23772    433.98886    23.516884    22.171003    1.0431725    435.03203   -45.480042   -3124.0381 
   16700   -101753.66   -91914.418    238.96779    20721    226305.84    72.794202   -3.7650004    276.93062   -54.783012    434.21476    23.512175    22.166563   0.93021816    435.14498   -33.507708   -3089.0728 
   16800   -101802.23   -91882.818    240.91484    20721    226292.58   -106.93631   -65.746643   -45.080474   -209.98181    434.12944    23.513796    22.168092   0.97287936    435.10232   -20.154455   -3126.1268 
   16900   -101786.19   -91857.492    241.14029    20721     226221.1    50.654479   -75.752901    301.78248   -74.066146    433.98444     23.51401    22.168293    1.0453801    435.02982   -24.838337   -3157.7128 
   17000   -101796.02   -91892.509    240.52876    20721    226364.56    24.363092     252.6484   -175.17415   -4.3849734    434.16774    23.516498     22.17064   0.95372752    435.12147   -5.2109466    -3137.837 
   17100   -101799.98   -91909.059    240.22278    20721    226266.12    38.012017     12.50733   -21.820464    123.34919    434.05141    23.514535    22.168789    1.0118967     435.0633   -11.348649   -3120.8112 
   17200   -101810.05   -91908.606    240.47845    20721     226457.5    22.510054     59.35493   -18.836244    27.011476    434.04871     23.52455    22.178231    1.0132426    435.06196    4.5961929   -3130.0225 
   17300   -101734.75   -91904.829    238.74135    20721    226385.82   -2.2560832    3.6951565   -156.77633    146.31292     434.2152    23.516317    22.170469   0.92999847     435.1452   -7.1700693   -3124.7295 
   17400    -101820.2   -91895.158    241.05151    20721    226351.61    3.0993587     -123.528   -63.045158    195.87123    434.20273    23.514878    22.169112   0.93623382    435.13897    -7.880743    -3136.225 
   17500   -101796.69   -91915.773    239.97995    20721    226241.83    60.194413    50.278187    91.915599    38.389452    434.00262    23.514594    22.168845    1.0362888    435.03891   -3.3505218   -3125.5877 
   17600   -101781.13   -91849.255    241.21767    20721    226416.09   -63.439395   -19.761157   -29.865194   -140.69183    434.30421    23.515479    22.169679   0.88549442    435.18971   -13.981679   -3172.2884 
   17700   -101770.86   -91847.526    241.01007    20721    226340.29   -59.882773   -60.530816   -188.10149    68.983988    434.23152    23.513511    22.167823   0.92184114    435.15336   -21.942592   -3168.8098 
   17800   -101783.62   -91832.681    241.68053    20721    226220.94   -29.974276   -135.75022   -238.02863    283.85602    434.22324    23.507535    22.162189   0.92598177    435.14922   -8.8672931   -3204.1486 
   17900   -101784.19    -91831.16    241.73141    20721    226264.63    25.830618    105.89601    95.959086   -124.36324    434.30192    23.507675    22.162321   0.88664208    435.18856   -12.931929   -3204.0526 
   18000   -101738.13   -91777.114    241.92536    20721    226286.53    47.671908    79.745779    44.122402    19.147543    434.37505    23.506833    22.161528   0.85007438    435.22513   -27.533473   -3243.1442 
   18100   -101759.95   -91800.687    241.88272    20721    226242.04   -24.776608   -200.11661   -212.40281    338.18959    434.48964    23.501423    22.156427   0.79278159    435.28242   -28.074116   -3218.6557 
   18200   -101785.56   -91762.181    243.43999    20721    226370.63    -44.36625   -83.413464    185.11186   -234.79714    434.39418    23.510683    22.165158   0.84050923    435.23469   -28.512226   -3253.6249 
   18300   -101677.33   -91820.227    239.40154    20721    226130.26    3.9791647    164.14657    74.043943   -226.25302    434.27045    23.501545    22.156542   0.90237296    435.17283   -5.6187728    -3227.149 
   18400   -101713.58    -91803.97    240.67674    20721    226192.67    46.343085   -48.556861     135.2524    52.333713    434.38262    23.501753    22.156738   0.84629077    435.22891   -8.8593965   -3244.2216 
   18500   -101678.52   -91820.535    239.42293    20721    226101.75   -4.0278147   -233.98908    113.11315    108.79249    434.14546    23.503446    22.158335   0.96486874    435.11033   -26.810913   -3210.4909 
   18600   -101666.51   -91746.952    240.91832    20721     226236.3    40.200951    209.13232   -262.83134    174.30188    434.26216    23.507279    22.161948   0.90651815    435.16868   -59.764508    -3250.823 
   18700   -101633.93   -91753.368    239.97119    20721    226247.17    69.375268   -110.91312     123.5989    195.44002    434.12776    23.511482    22.165911   0.97372041    435.10148    -54.38889   -3250.9854 
   18800   -101730.37   -91710.709    243.34971    20721    226137.35   -56.054076    -49.03057   -14.146277   -104.98538    433.91304    23.511591    22.166013    1.0810792    434.99412   -64.278036   -3282.5421 
   18900   -101676.38   -91705.236     242.1713    20721    226151.96   -54.044128   -44.669533   -7.7765754   -109.68628    433.92402    23.512053    22.166449     1.075588    434.99961   -56.501365   -3296.8909 
   19000   -101688.63    -91685.76     242.9418    20721    226241.77   -44.884506   -16.292257    14.471519   -132.83278    434.15484    23.510469    22.164955   0.96017964    435.11502   -75.801314   -3297.1747 
   19100   -101666.32   -91638.736    243.54207    20721    226281.66   -71.445931    23.780356   -243.54759    5.4294349    434.16056    23.512386    22.166763   0.95732142    435.11788   -74.123709   -3342.6191 
   19200   -101578.73    -91641.85    241.33912    20721    226206.74   -11.263427   -60.619536   -70.977422    97.806676    434.20281     23.50735    22.162015   0.93619641      435.139   -101.72547   -3319.3426 
   19300   -101622.42   -91584.849     243.7846    20721    226561.42   -51.472436   -181.48624   -140.72829    167.79722    434.44131    23.519313    22.173294   0.81694548    435.25825   -82.291532   -3385.8254 
   19400    -101566.2   -91565.074    242.89944    20721     226401.3    41.203148    91.318214    25.201313    7.0899165    434.18228    23.518013    22.172068   0.94645819    435.12874   -94.025388   -3402.4192 
   19500   -101611.75   -91539.476     244.6275    20721     226284.8   -19.691776    -110.5513    205.30782   -153.83185    434.14786    23.512893    22.167241   0.96366855    435.11153   -97.479012   -3425.6246 
   19600   -101611.88   -91577.368    243.71038    20721    226372.86    12.687419   -171.70953    90.720177    119.05161    434.22554    23.515364     22.16957   0.92482807    435.15037   -104.83581    -3382.596 
   19700   -101615.63   -91580.338    243.72939    20721    226452.86   -30.140256   -5.9389613    184.70709    -269.1889    434.46098    23.513146    22.167479   0.80710884    435.26809   -91.394762   -3389.1062 
   19800   -101530.13   -91547.931    242.43969    20721    226456.93     57.63668    160.29318    6.4669657    6.1498986    434.59344    23.509773    22.164299   0.74087966    435.33432   -96.620999   -3420.1314 
   19900   -101612.87   -91558.565    244.19101    20721     226390.4   -29.139628   -22.172699    61.872772   -127.11896    434.34278    23.513101    22.167437   0.86620998    435.20899   -91.572083   -3415.4673 
   20000   -101620.18   -91538.568    244.85426    20721    226365.73   0.30273192   -18.143202     64.16494   -45.113541    434.63179    23.504001    22.158858   0.72170435     435.3535   -91.828099   -3437.3548 
   20100   -101504.55   -91507.169    242.80862    20721    226299.85   -44.753796    4.2280129    276.98072   -415.47012    434.51856    23.503643     22.15852   0.77831767    435.29688   -104.36972    -3457.416 
   20200   -101651.52   -91514.627    246.19678    20721    226308.99   -74.040947     -231.113     -347.022    356.01216    434.50958    23.504361    22.159197   0.78281089    435.29239   -102.01809   -3450.7953 
   20300   -101509.71   -91497.276    243.17408    20721    226309.48    82.792081    64.420737    336.83405   -152.87855     434.7593    23.497635    22.152856   0.65795058    435.41725   -120.72702    -3457.754 
   20400   -101583.06   -91495.881    244.98936    20721    226321.41    8.4102571   -20.964663   -5.2298934    51.425327    434.52378    23.504621    22.159442   0.77570952    435.29949   -103.65824   -3475.2693 
   20500   -101501.71   -91484.663    243.28612    20721    226189.51    30.428783    37.006899    64.408903   -10.129452    434.40609    23.500954    22.155985   0.83455393    435.24065   -111.73162   -3480.9528 
   20600   -101530.33   -91507.556    243.42523    20721    226336.03   -6.7659468   -43.655831    157.31004   -133.95205    434.61878    23.502811    22.157736   0.72821115    435.34699   -111.05515   -3453.1979 
   20700   -101557.81    -91545.13    243.18011    20721    226291.76   -76.659775   -163.99219   -12.997905   -52.989228    434.53313    23.502829    22.157752   0.77103369    435.30417   -107.53976   -3418.1628 
   20800   -101527.39    -91524.69    242.93773    20721    226411.49    22.699196     128.7827    125.67364   -186.35875    434.64777    23.505945    22.160691    0.7137149    435.36149   -91.511219   -3458.5383 
   20900   -101539.35   -91494.788    243.95436    20721    226289.06    44.212677   -80.178712    202.58029    10.236456    434.63243    23.500004    22.155089   0.72138289    435.35382   -106.49366   -3479.1156 
   21000   -101466.34    -91466.12    242.87755    20721    226359.32     44.66015   -23.958456   -34.554248    192.49315    434.56939    23.505356    22.160135   0.75290306     435.3223   -124.38173   -3488.1169 
   21100   -101597.95   -91492.753    245.42707    20721    226283.29   -5.5273659    147.62326   -71.862505   -92.342851    434.28144    23.509198    22.163758    0.8968815    435.17832   -127.08321   -3460.3551 
   21200   -101558.95    -91498.32    244.34475    20721    226307.25    65.575748   -50.363179    112.84755    134.24287    434.55319     23.50309    22.157999   0.76100321     435.3142   -126.26498   -3459.7297 
   21300   -101425.44    -91497.78    241.11525    20721    226292.78    12.148446   -115.72728    81.929931    70.242686    434.41513    23.506074    22.160812   0.83003526    435.24516   -112.81133   -3471.7672 
   21400   -101475.15   -91464.166    243.13902    20721    226254.11    52.505238   -137.25083    279.74838    15.018165       434.11    23.512324    22.166704   0.98260044     435.0926   -121.37559   -3502.2057 
   21500   -101500.02    -91426.66    244.65383    20721    226263.92    3.5931727     11.47632   -349.47268    348.77588    434.20845    23.510168    22.164672   0.93337581    435.14182   -111.82037   -3546.8344 
   21600   -101496.74   -91422.844    244.66683    20721    226287.98   -16.033015    78.123578    13.219709   -139.44233    434.24945    23.510308    22.164804   0.91287393    435.16233   -117.09879   -3545.8512 
   21700    -101471.5    -91421.42    244.08856    20721     226220.7     70.51499    331.96529    104.93222   -225.35255    434.12199    23.510263    22.164762   0.97660377     435.0986   -94.225651   -3575.5245 
   21800   -101374.22   -91390.703    242.47183    20721    226056.82   -43.844785   -110.25907    289.20575   -310.48103    434.14613    23.501093    22.156116   0.96453255    435.11067   -120.23268   -3581.3856 
   21900   -101438.18     -91365.2    244.64455    20721    226192.82   -7.7987791    63.284652    6.3785724   -93.059562    434.22621    23.505993    22.160736   0.92449267    435.15071    -104.3615   -3620.9063 
   22000   -101399.62    -91379.47    243.36158    20721    226039.58     10.50565    8.5307776    80.112048   -57.125877    434.01498    23.503747    22.158618     1.030108    435.04509   -102.87983    -3616.011 
   22100   -101462.03   -91358.093    245.39658    20721    226122.77   -31.987883   -57.113922    19.893461   -58.743188    434.19471    23.503205    22.158107   0.94024374    435.13496    -77.52038   -3657.3518 
   22200   -101489.93   -91396.158    245.14951    20721    226067.13    12.216412    1.5081115   -42.528749    77.669874    433.91166    23.507978    22.162607    1.0817717    434.99343   -86.972983   -3617.5846 
   22300   -101323.63   -91364.209    241.88666    20721    225964.12    44.789743    13.252907    98.622899    22.493423    433.98654    23.500593    22.155645    1.0443294    435.03087   -73.512207   -3667.2961 
   22400   -101466.05   -91350.521    245.67806    20721    226233.16    29.205518   -164.14187    183.57704    68.181383    434.22039    23.508247     22.16286   0.92740387     435.1478   -91.750673   -3657.2865 
   22500   -101367.36   -91384.167    242.46392    20721    225973.76    28.034553    24.781901   -80.636834    139.95859    434.02831    23.499964    22.155052    1.0234466    435.05175   -72.428504   -3650.2207 
   22600   -101545.57   -91377.483    246.95454    20721    225946.28   -15.311125   -10.614897   -223.24405    187.92557    433.72889    23.506644     22.16135    1.1731558    434.90204   -60.760131   -3669.5314 
   22700   -101399.37   -91379.433    243.35627    20721    225873.78   -31.991061   -41.224048   -52.250397   -2.4987394    433.85536    23.499447    22.154564    1.1099183    434.96528   -58.012986   -3670.7924 
   22800   -101448.13   -91363.186    244.93523    20721    225877.24   -138.32066   -102.43129    194.40298   -506.93368    433.62809    23.505784    22.160539    1.2235544    434.85165   -56.641606   -3684.8724 
   22900   -101432.13   -91316.155    245.68882    20721    225962.94   -67.440509   -131.71074    129.24891   -199.85969    433.82285    23.504965    22.159767    1.1261753    434.94902   -65.096033   -3727.2324 
   23000   -101483.83   -91316.886    246.92683    20721    225967.53    47.378142    174.15539   -237.62517    205.60421      433.703    23.508451    22.163053    1.1860994     434.8891    -71.85613   -3725.9185 
   23100   -101283.23   -91315.013    242.10014    20721    225966.09    29.883473    81.961359   -137.19778    144.88684    433.59951    23.511182    22.165627    1.2378432    434.83736   -72.307803   -3724.9872 
   23200   -101417.92   -91254.676    246.83683    20721    225979.45    15.819447   -12.053507    27.475403    32.036445    433.82214    23.505843    22.160594    1.1265287    434.94867   -75.586108   -3785.3384 
   23300   -101258.46    -91251.37    243.04429    20721    225999.61   -14.908216   -116.86031    326.04153   -253.90586    433.93501    23.503834      22.1587    1.0700939    435.00511   -67.508763   -3794.6685 
   23400   -101387.82   -91251.574    246.18106    20721    225960.68   -19.477282    108.67287   -83.682775   -83.421943    433.71369    23.507806    22.162444    1.1807551    434.89444   -76.369402   -3787.6557 
   23500   -101297.19   -91265.141    243.65056    20721    226039.73    46.303408    125.15276     -86.3379    100.09536    433.74223    23.511144    22.165592    1.1664867    434.90871   -69.513279   -3783.9105 
   23600   -101366.26   -91287.979    244.77336    20721    226097.85   -7.2228269    27.049684    -81.36721    32.649046    433.87414    23.510591    22.165071    1.1005291    434.97467    -65.81378   -3759.2595 
   23700   -101261.26   -91280.056     242.4156    20721    226129.38     42.22965   0.12914515   -110.70148    237.26128     433.9515    23.510134     22.16464    1.0618491    435.01335    -79.21732   -3756.0685 
   23800      -101310   -91294.985     243.2367    20721     225925.9    2.3626715   -46.972841    377.43607   -323.37521    433.50674    23.511606    22.166027    1.2842305    434.79097   -87.930312   -3738.5681 
   23900   -101406.57   -91284.264    245.84272    20721    225905.04   -37.890085    59.702805    89.384735    -262.7578    433.56439    23.508957     22.16353    1.2554037     434.8198   -97.997227   -3741.0017 
   24000   -101372.48   -91249.199     245.8664    20721    226013.92    47.189653    170.27581    17.025198   -45.732053     433.7062    23.510777    22.165246    1.1844989     434.8907   -94.148608   -3782.1433 
   24100   -101369.26   -91226.848    246.33093    20721    226040.87    -13.73765    -120.2982   -361.81041    440.89567    433.63851    23.514014    22.168298    1.2183435    434.85686   -107.19086   -3786.4075 
   24200   -101353.06   -91317.298    243.74071    20721    225937.58    16.208693     55.54667    51.194153   -58.114746    433.39806    23.515161    22.169379    1.3385678    434.73663   -80.105726   -3729.6418 
   24300   -101381.83   -91290.738    245.08454    20721    226108.94    47.112893   -53.468461     124.2161     70.59104    433.62841    23.517829    22.171894    1.2233935    434.85181   -93.827404    -3738.546 
   24400   -101311.21   -91287.573    243.44624    20721    226092.94   -76.181542    89.235756   -92.122619   -225.65776    433.81551    23.511925    22.166328    1.1298439    434.94536   -76.953095   -3755.9831 
   24500   -101363.37     -91255.4    245.49453    20721     226184.1   -65.755305   -235.86234   -59.618123    98.214551    433.77313    23.517812    22.171879    1.1510336    434.92417   -68.981847   -3795.0145 
   24600   -101326.68   -91237.175    245.04587    20721    226007.74   -59.439424   -87.589761   -103.94513    13.216623    433.43479    23.517816    22.171882    1.3202041      434.755   -77.042642    -3812.184 
   24700   -101313.17   -91239.156    244.66975    20721    226000.28    41.403299    21.341557   -69.475974    172.34431    433.61768    23.512468     22.16684    1.2287577    434.84644   -97.796466   -3795.8425 
   24800   -101305.56   -91240.575    244.45036    20721    225716.76   -23.334043    50.419759   -171.30216    50.880274    433.32828     23.50556    22.160327    1.3734595    434.70174   -93.221898    -3805.226 
   24900    -101232.6    -91205.08    243.54042    20721    225992.37    131.77072    307.47134   -7.2595001    95.100314    433.42222    23.517357    22.171449    1.3264879    434.74871   -91.747439   -3841.4483 
   25000   -101332.83   -91223.307    245.53219    20721    225820.79  -0.38270799   -41.048535    272.67101    -232.7706    433.71962    23.500367    22.155431    1.1777878    434.89741   -84.734324   -3833.3714 
   25100    -101389.6    -91214.82    247.11707    20721    225797.41   -50.597918   -37.876102    193.74739   -307.66504    433.60503    23.502255    22.157212    1.2350856    434.84011   -85.176434   -3840.9959 
   25200   -101341.51   -91279.813    244.37061    20721    225941.32   -39.585035   -223.31904    85.361925    19.202014    433.51919    23.512071    22.166466    1.2780044     434.7972   -64.355807   -3791.3307 
   25300   -101445.62   -91285.368    246.76417    20721    225915.76    5.5846202   -42.358254     132.1164   -73.004289    433.65791     23.50698    22.161666    1.2086442    434.86656   -63.314868   -3792.8813 
   25400    -101364.5   -91262.049    245.36044    20721    225824.63   -44.034467    4.6527002   -124.92052   -11.835581    433.43664    23.508237    22.162851    1.3192812    434.75592   -52.095436   -3827.8968 
   25500   -101298.99   -91176.074    245.85738    20721    225980.35    14.880167    99.940685   -92.868856    37.568673    433.71389    23.508823    22.163404    1.1806529    434.89455   -50.698237   -3914.2619 
   25600   -101373.81    -91186.06    247.43207    20721    225991.45    -79.10288   -31.943752    -286.0002    80.635308    433.68344    23.510226    22.164726    1.1958794    434.87932   -54.005862   -3896.3602 
   25700   -101247.56   -91154.433      245.134    20721    225853.58    15.485784   -297.54709    452.04255    -108.0381    433.61109    23.505014    22.159813    1.2320566    434.84314   -73.968939   -3919.4218 
   25800    -101315.5   -91124.286    247.51619    20721    226066.45    16.408424    306.75431    86.218624   -343.74767     433.7488    23.512355    22.166734    1.1632013      434.912   -71.950461   -3949.6122 
   25900   -101253.32   -91152.432    245.32235    20721    226047.38   -21.552884   -79.033056    120.14559   -105.77119    433.67708    23.513307    22.167631     1.199058    434.87614   -59.102659   -3932.9487 
   26000      -101333    -91167.93     246.8811    20721    225884.92   -52.963703   -166.98764   -189.81449    197.91102    433.47018    23.510465    22.164952    1.3025098    434.77269   -60.936056   -3919.9256 
   26100   -101259.85   -91161.946       245.25    20721    225939.43    22.570323    331.48312   -110.82377   -152.94838    433.79436    23.504514    22.159342    1.1404213    434.93478   -55.516609   -3933.8162 
   26200   -101228.54   -91154.031    244.68164    20721    226070.89    156.44936   -71.831917    540.38948   0.79051845      434.017     23.50532    22.160101    1.0291002     435.0461   -48.333512   -3952.6281 
   26300   -101214.53   -91161.902    244.15037    20721    226009.46   -29.776497   -132.42848   -199.53933    242.63832    433.77124    23.508783    22.163366    1.1519811    434.92322   -41.392827   -3945.4696 
   26400   -101252.14   -91144.772    245.47971    20721    226198.17    70.249304    76.533106    76.491459    57.723346    433.87777    23.515708    22.169895    1.0987154    434.97648   -57.305319   -3947.3098 
   26500    -101261.3   -91093.004    246.95967    20721    226124.74   -43.810555   -107.93057   -71.998894    48.497795    433.55119    23.520745    22.174643    1.2620064    434.81319   -68.177318   -3987.4047 
   26600   -101238.91   -91102.347    246.18881    20721    226114.95    11.287617    106.15231    164.17677   -236.46623    433.88292    23.511242    22.165685    1.0961393    434.97906   -63.917208    -3984.668 
   26700    -101228.1   -91118.319    245.53836    20721    226059.29   -7.4186643    69.598025   -32.218939   -59.635079    434.07839    23.503055    22.157966   0.99840583    435.07679   -78.755611   -3956.8221 
   26800   -101193.06    -91083.33    245.53719    20721    226226.93   -34.499903   -120.27266    36.819967   -20.047017     433.8421     23.51817    22.172216    1.1165509    434.95865   -64.229558   -3999.4474 
   26900   -101270.51   -91090.841    247.23585    20721    226222.52     25.60059    21.474349    115.04554   -59.718124    434.13351    23.510046    22.164556   0.97084302    435.10436   -63.106815   -4000.4317 
   27000   -101273.22    -91053.81    248.20107    20721    226226.58   -63.308482    137.02965   -143.76683   -183.18827    434.12827    23.510399    22.164889   0.97346365    435.10174   -85.963839   -4008.9202 
   27100   -101203.75   -91037.329    246.91402    20721    226064.78    34.081585    141.67457    71.258382   -110.68819    434.00675     23.50528    22.160063    1.0342228    435.04098   -81.725545   -4040.6087 
   27200   -101140.99   -90967.586    247.08372    20721    226424.96    42.128656     41.87484   -19.396456    103.90758    434.27021    23.516861    22.170982   0.90249695     435.1727   -92.129904   -4091.2188 
   27300    -101016.7    -90972.85    243.93718    20721    226097.58    92.753465     255.8932     63.23555    -40.86835    434.20695    23.501565    22.156561    0.9341239    435.14108    -80.48018   -4111.1241 
   27400   -101125.75   -90966.162    246.74806    20721    226145.61   -15.558349    139.77236     38.08591   -224.53332    434.08886    23.507258    22.161928   0.99316965    435.08203   -76.933969   -4116.8933 
   27500   -101164.26   -90972.408    247.53165    20721     226325.4    32.812606    46.053062    38.390884    13.993872     434.1125     23.51596    22.170132   0.98135002    435.09385   -82.340814    -4100.869 
   27600   -101083.08    -90987.27    245.19918    20721    226203.67    42.598249    155.73407  -0.32426902   -27.615052    434.11983    23.509437    22.163982   0.97768306    435.09752   -80.850632   -4091.5011 
   27700    -101142.6   -90951.728      247.508    20721    226039.19   -70.545105   -232.83715   -93.356006    114.55784     434.0993    23.501444    22.156447   0.98795183    435.08725   -84.773069    -4124.365 
   27800   -101113.45   -90962.263    246.54399    20721    226262.65   -14.250835    73.705364    1.7428563   -118.20073    434.09241    23.513244    22.167572   0.99139285    435.08381   -77.695814   -4120.3551 
   27900   -101063.21   -90957.547    245.43828    20721    226119.38    44.880764    30.418035    133.59165   -29.367397     434.0275    23.507556     22.16221    1.0238519    435.05135   -84.511113   -4128.1136 
   28000   -101123.43   -90943.278    247.24755    20721    226214.67   -32.769757   -55.487324   -77.758923    34.936976     434.2964    23.505229    22.160015    0.8894021     435.1858   -93.421355   -4126.1198 
   28100   -101193.75   -90911.618    249.72437    20721    226113.37   -28.906703   -70.014433   -26.834847    10.129173    434.30327    23.499779    22.154878   0.88596496    435.18924   -120.20816   -4135.1924 
   28200   -101131.39   -90932.263    247.70828    20721    226008.64   -68.023724   -72.103789   -182.71703    50.749642    433.91756    23.504777    22.159589    1.0788195    434.99638   -112.36966   -4123.8209 
   28300   -101057.86   -90896.461    246.79213    20721    226249.06    77.705697   -29.314329    189.55456    72.876864    434.05174     23.51364    22.167945    1.0117303    435.06347    -131.8369   -4140.2796 
   28400   -100961.55   -90856.956    245.41251    20721    226067.74     87.36035      199.408    198.32653   -135.65347     433.9599    23.506702    22.161404    1.0576486    435.01755   -135.17003   -4182.7669 
   28500   -101022.81   -90858.714    246.85761    20721    226304.17   -11.439295   -98.197863    230.32396   -166.44398    434.12222    23.514594    22.168844   0.97648915    435.09871   -116.34669   -4190.6569 
   28600   -101127.48   -90880.504     248.8704    20721    226312.67   -7.0698535   -63.361233   -22.930839    65.082512    433.99399    23.518509    22.172535    1.0406062    435.03459   -120.32785   -4166.5122 
   28700   -101053.95   -90848.739    247.85609    20721    226185.83    93.180844    120.00993    153.44664    6.0859566    433.98064    23.512279    22.166662      1.04728    435.02792   -136.90724   -4189.5183 
   28800   -100950.98   -90839.202    245.58699    20721    226277.77   -3.8532072   -117.07772   -3.4583748    108.97647    434.07841    23.514409     22.16867   0.99839645     435.0768   -134.63765   -4195.9831 
   28900   -100940.61   -90813.027    245.97067    20721    226028.64    41.735099   -50.367075    109.01107    66.561304    434.04217    23.502442    22.157388     1.016513    435.05869   -152.33815   -4213.8678 
   29000   -101069.19   -90832.749     248.6147    20721    226120.24   -58.868406   -289.76299    -91.21692    204.37469    434.07484    23.506319    22.161043     1.000178    435.07502   -133.02455   -4210.8162 
   29100   -101017.79   -90808.443     247.9567    20721    226042.36    65.841118   -27.488435    21.069268    203.94252    433.98082    23.504817    22.159627    1.0471921    435.02801   -145.09289   -4230.6533 
   29200   -101141.23   -90835.365    250.30079    20721    226038.49   -83.201468   -100.96599   -111.02328   -37.615138    434.32422    23.495321    22.150675   0.87549246    435.19971   -143.24106   -4201.5371 
   29300   -100947.36   -90836.433    245.56617    20721    226029.36    28.167798   -210.30053    388.18823   -93.384297    434.16766    23.499082    22.154221   0.95376843    435.12143   -160.03965   -4188.5107 
   29400   -101075.52   -90844.619    248.48017    20721    226220.65    -100.1477    9.7527463   -60.621056   -249.57478     434.1575    23.509299    22.163853   0.95884949    435.11635   -148.81804   -4182.2756 
   29500   -101040.16   -90798.683    248.73692    20721    226157.29    32.794197    64.957691   -96.195317    129.62022    434.05539    23.508771    22.163355    1.0099048     435.0653   -156.02482   -4229.3444 
   29600   -100925.06   -90815.243    245.53935    20721    226118.68    25.050175   -96.054504    59.790415    111.41461    434.03425    23.507337    22.162003    1.0204725    435.05473   -164.09455   -4205.9029 
   29700   -100986.98   -90787.559    247.71561    20721    225901.81    75.973524    57.046288   -146.08958    316.96386    433.82056    23.501847    22.156827    1.1273201    434.94788   -145.77331   -4263.2172 
   29800   -100985.68   -90767.733     248.1654    20721    226126.65    79.351659    200.82859   -83.802693    121.02908    434.22544    23.502576    22.157514   0.92487831    435.15032   -141.43415   -4282.9161 
   29900   -100949.25   -90748.322     247.7522    20721    226076.52    7.8559564    18.476244    18.794861   -13.703236    433.86943     23.50961    22.164145    1.1028865    434.97231   -156.98391   -4286.0739 
   30000   -101001.24    -90706.48    250.03108    20721    226106.37    41.326803   -111.28842   -31.331896    266.60072    434.09844    23.504959    22.159761   0.98837912    435.08682   -168.19575    -4320.402 
   30100   -100962.61    -90710.99    248.98334    20721    226054.65   -66.776854   -80.610489   -72.145263    -47.57481    434.01471    23.504538    22.159364    1.0302461    435.04495   -167.84014   -4312.9074 
   30200   -101002.94   -90723.936    249.64837    20721    225731.05   -61.583377    -221.2141    121.55443    -85.09046    433.54638    23.500391    22.155454    1.2644078    434.81079    -163.7745   -4314.9243 
   30300   -100960.23   -90742.718    248.15482    20721    225696.02     7.032547    6.6290012    116.95677   -102.48813    433.47078    23.500616    22.155667    1.3022111    434.77299   -147.88209   -4316.7771 
   30400   -100873.66   -90686.096    247.42748    20721       225740   -32.941442     139.0762   -47.222688   -190.67783    433.18721    23.510597    22.165076    1.4439961     434.6312   -159.68054   -4358.8209 
   30500   -100922.56   -90688.106    248.56635    20721    225823.57   -20.010095   -176.41798    247.44585   -131.05815     433.2718    23.512653    22.167015    1.4017021     434.6735   -144.45866    -4371.102 
   30600   -100973.17   -90660.475    250.46663    20721    225548.51    34.489481   -5.4973567   -271.77784    380.74363     433.1205    23.502433    22.157379    1.4773496    434.59785    -147.5546   -4409.5534 
   30700   -100936.94   -90712.644    248.31959    20721    225574.83   -39.412539    110.10492     70.93279   -299.27532     433.4285    23.495452    22.150798    1.3233509    434.75185   -143.92996   -4357.8816 
   30800   -100981.88   -90674.303    250.34232    20721    225728.61   -46.806313   -109.50494    91.497765   -122.41177    433.39753    23.504299    22.159138    1.3388361    434.73636   -174.95647   -4361.0236 
   30900   -100959.01   -90708.814    248.94881    20721    225734.43    88.652106   -70.985083     135.4114       201.53    433.14142     23.51155    22.165974    1.4668877    434.60831   -156.60305   -4353.2551 
   31000   -100920.91   -90656.946    249.28304    20721     225744.8   -35.623015    20.494848   -48.590521   -78.773372    433.18718    23.510848    22.165313    1.4440114    434.63119   -169.57931   -4386.5298 
   31100   -100960.25   -90623.607    251.04819    20721    225705.96   -39.549705   -203.48517    0.2984998    84.537555    433.51543    23.499923    22.155013    1.2798856    434.79531   -154.67788   -4438.9479 
   31200   -100965.33   -90691.634    249.51945    20721    225781.88   -3.7105076   -80.345829   -211.89409     281.1084    433.58122    23.502092    22.157058    1.2469886    434.82821   -148.34822   -4376.1152 
   31300   -100971.12   -90679.029    249.96629    20721    225684.82   -57.145678   -203.09798   -5.4528486    37.113793     433.2471    23.506099    22.160835    1.4140519    434.66115   -158.78671   -4379.7551 
   31400   -100895.91    -90639.68     249.0953    20721    225761.77   -160.60585   -272.68779   -78.270385   -130.85936    433.17748    23.511995    22.166394    1.4488577    434.62634    -167.9755   -4404.2616 
   31500    -100889.7    -90624.12    249.32232    20721    225907.25    64.536663    249.52441    118.83975   -174.75416    433.25289    23.517522    22.171605    1.4111555    434.66404   -168.75997   -4428.1249 
   31600   -100845.82   -90636.334    247.95998    20721    225668.69    -25.81903     -43.3003   -189.29154    155.13475    432.95822    23.513099    22.167435    1.5584913    434.51671   -177.00168   -4410.2871 
   31700   -100929.23   -90572.592    251.53386    20721     225811.7    85.333312    70.534603     57.88691    127.57842    433.29474    23.511413    22.165845    1.3902303    434.68497   -198.58139   -4455.3263 
   31800   -100935.01   -90582.167    251.44177    20721    225556.76   -125.43669   -309.31271    -80.41452    13.417159    432.97117    23.506916    22.161605    1.5520174    434.52318   -181.81206   -4462.0574 
   31900   -100951.16   -90601.501    251.36439    20721       225892   -12.903861   -2.3408578    122.95772   -159.32844    433.32726    23.514711    22.168954    1.3739699    434.70123   -157.73656   -4463.4588 
   32000   -100858.31   -90571.726    249.83246    20721    225788.09   -23.176066   -180.42255   -78.975918    189.87027    433.17561    23.513416    22.167734    1.4497956     434.6254    -159.6596   -4494.4138 
   32100    -100952.7   -90626.114    250.80405    20721    225707.76   -10.171705   -86.608022   -73.708286    129.80119    433.09111    23.511526    22.165952    1.4920453    434.58315   -165.36863   -4438.9798 
   32200   -100848.81   -90582.113    249.34955    20721    225620.79   -3.2028047   -154.53712     -76.5085     221.4372    432.87074    23.512979    22.167322    1.6022291    434.47297   -171.18872   -4479.5211 
   32300   -100861.85    -90606.51    249.07368    20721     225717.6    50.228411    105.84795    60.087976   -15.250695    432.97365    23.515228    22.169442    1.5507758    434.52442   -153.26771   -4473.4334 
   32400    -100870.1    -90590.51    249.66261    20721    225684.98   -56.411505   -156.63765     56.32589   -68.922757    432.88451    23.515949    22.170122    1.5953445    434.47986   -165.94373    -4474.348 
   32500   -100917.52     -90593.3    250.74641    20721    225612.68    -80.48057    21.291696   -87.344757   -175.38865    432.91093    23.511465    22.165894    1.5821326    434.49307   -153.80099   -4486.8416 
   32600    -100950.9   -90589.742    251.64374    20721    225597.66    12.755383    114.16146   -87.840633    11.945322    432.96641    23.509176    22.163737    1.5543952     434.5208   -148.44695    -4503.234 
   32700   -100814.96   -90577.217    248.64628    20721    225481.67    29.786497    55.267821   -13.329511    47.421181    432.82021    23.507101     22.16178    1.6274956     434.4477   -158.15482   -4509.7242 
   32800   -100744.14   -90559.909     247.3466    20721    225452.86    86.225198    34.804526   -64.554643    288.42571    432.73133    23.508013     22.16264    1.6719367    434.40326   -165.81236   -4522.6111 
   32900   -100788.38   -90549.465    248.67468    20721    225546.37   -67.266664   -19.176349   -10.979489   -171.64415     433.0044    23.505472    22.160245    1.5353978     434.5398   -145.12607   -4544.8473 
   33000   -100908.78   -90591.917    250.56791    20721    225705.85    37.847646    87.313158    78.339935   -52.110154    433.16792    23.509343    22.163894    1.4536408    434.62156   -146.21875   -4504.8017 
   33100   -100806.81   -90549.974    249.10999    20721    225846.21    88.982759    183.60925    301.53024   -218.19121    433.10133    23.518459    22.172488    1.4869344    434.58827   -128.80487   -4562.0622 
   33200   -100770.43   -90533.226    248.63323    20721    225696.79    37.170788    98.874254    112.19021   -99.552104    433.08722    23.511061    22.165514    1.4939916    434.58121   -140.49222   -4571.0141 
   33300   -100770.01   -90536.097    248.55315    20721    225749.19   -30.242397   -68.618482    80.357384   -102.46609    433.07309    23.514173    22.168448    1.5010531    434.57415   -119.85245   -4583.3299 
   33400   -100785.56   -90518.639    249.35488    20721    225675.18    4.4051672    37.838907    304.80561   -329.42902     433.2791    23.504729    22.159544    1.3980476    434.67715   -124.60994   -4601.4373 
   33500    -100855.6   -90511.149    251.23784    20721    225651.21   -56.532837    -24.85491   -189.86484    45.121235    433.30188    23.502862    22.157784    1.3866583    434.68854   -104.78454   -4626.8934 
[...]
  491800   -95901.962   -84203.222     284.1298    20721    221445.57    -124.4705   -223.36705   -28.329584   -121.71488      424.712    23.517083    22.171191    5.6816012     430.3936    5317.6786   -23534.657 
  491900   -95638.754   -84200.027     277.8148    20721    221332.28    93.706467    74.835304   -81.213212    287.49731    424.38313    23.520175    22.174105    5.8460349    430.22917    5314.2561    -23547.58 
  492000   -95648.347   -84169.656    278.78543    20721    221307.24    104.47395    285.65376    309.02435   -281.25627    424.42153     23.51778    22.171848    5.8268367    430.24836    5308.5484   -23577.423 
  492100    -95694.21   -84199.362    279.17784    20721    221401.81   -6.7380719    -174.0082    121.06446    32.729524    424.31537    23.525746    22.179359    5.8799158    430.19528    5321.7056   -23552.992 
  492200     -95820.2   -84242.565     281.1885    20721    221172.73   -42.273091   -157.50612   -114.51939    145.20624    423.89953    23.525103    22.178752    6.0878352    429.98736    5309.8866   -23507.279 
  492300   -95740.768   -84248.475    279.11579    20721    221324.88    84.414149   -94.487092   -186.81546    534.54499    424.02487    23.529715      22.1831    6.0251634    430.05004    5295.6421     -23488.2 
  492400   -95813.682   -84236.327     281.1817    20721    221373.79    23.376501    89.951454   -84.840809    65.018858    423.89971    23.535788    22.188826    6.0877443    429.98746    5326.0016   -23529.787 
  492500   -95822.467   -84263.438     280.7366    20721    221097.78   -105.40533    -74.52959    -76.72492   -164.96147    423.67332    23.527395    22.180913    6.2009409    429.87426    5328.1599   -23510.587 
  492600   -95826.991   -84230.156    281.65481    20721    221508.79    -23.37662    44.721478    90.534884   -205.38622    424.11132     23.53709    22.190053    5.9819413    430.09326    5340.1009   -23546.208 
  492700    -95734.01   -84218.402    279.68203    20721    220934.39    -88.31951   -157.22332   -426.94965    319.21444    423.71908     23.51743    22.171518    6.1780582    429.89714    5334.5454   -23569.798 
  492800   -95805.537   -84204.111    281.76631    20721    221419.59    27.518325    27.357722   -161.31201    216.50927    424.07735    23.533293    22.186473     5.998925    430.07628     5333.179   -23574.298 
  492900   -95823.822   -84250.402    281.08612    20721    221108.18    91.064648    246.69925   -147.75349    174.24818    423.87099    23.522462    22.176262    6.1021048     429.9731    5333.7507   -23542.522 
  493000   -95830.878   -84201.261    282.45099    20721    221294.62    21.637165   -103.84828    65.468148    103.29162    424.04664    23.527502    22.181014    6.0142778    430.06092    5328.4799   -23580.355 
  493100   -95885.355    -84232.27    283.02095    20721    221017.73   -72.431898    54.092556   -367.60348     96.21523    424.13268    23.510394    22.164885    5.9712589    430.10394    5318.3542   -23546.966 
  493200   -95839.531   -84192.048     282.8849    20721    221224.76    70.416781   -172.80628     127.2622    256.79443    424.20055    23.519521    22.173489    5.9373273    430.13787    5311.8958   -23580.034 
  493300   -95738.853   -84169.088    280.99736    20721    221239.82    -49.27203   -44.832723    4.7490144   -107.73238    424.23704     23.51931     22.17329    5.9190777    430.15612    5308.7125   -23595.618 
  493400   -95726.385   -84177.047    280.50122    20721    221116.19    13.739679   -76.148563   -80.816844    198.18444    424.02413     23.51864    22.172659    6.0255356    430.04966    5314.4908   -23602.545 
  493500   -95646.075   -84125.129    279.81166    20721    221111.96    112.91502    131.53656    -2.269184    209.47769    423.83625    23.523627     22.17736    6.1194737    429.95573    5297.5087   -23641.694 
  493600   -95820.569   -84161.774    283.15964    20721    220896.01   -63.560032   -2.5379232   -104.23737     -83.9048    423.74758    23.514597    22.168847    6.1638107    429.91139    5295.7616   -23604.921 
  493700   -95678.266   -84200.604    278.76044    20721    220732.82   -53.976614   -237.59424    219.71798   -144.05358    423.70125    23.507194    22.161868    6.1869774    429.88822     5293.956   -23570.617 
  493800    -95751.68   -84141.267    281.98457    20721    220875.52   -53.848484   -202.52642    114.91808   -73.937115     424.0304    23.505663    22.160425    6.0223991     430.0528     5285.082   -23621.022 
  493900    -95646.14   -84139.938    279.45357    20721    220852.17    -19.87204    20.428142     31.92248   -111.96674    423.66668    23.514508    22.168763    6.2042595    429.87094    5288.1738   -23628.491 
  494000   -95735.505   -84150.644    281.36398    20721    221018.97    16.537092    136.75627    -135.0828    47.937804    423.73645    23.521449    22.175307    6.1693757    429.90582    5308.1931   -23637.591 
  494100   -95694.958    -84112.59    281.30345    20721    220808.13   -80.347781   -101.65741   -38.368019   -101.01791    423.42739    23.518806    22.172815    6.3239048     429.7513    5285.5533   -23655.961 
  494200   -95647.255   -84164.909    278.87419    20721    220712.48    69.543161    122.09313    222.02305   -135.48669    423.75987    23.504485    22.159314    6.1576641    429.91754    5308.7883   -23638.706 
  494300    -95748.93    -84152.97    281.63355    20721    220824.88   -6.0268117    77.142819   -363.05353    267.83028    423.74754    23.510812    22.165278    6.1638292    429.91137    5324.3674   -23660.307 
  494400   -95819.697   -84138.522    283.70319    20721    220833.37    57.433357   -129.46819    140.23898    161.52928     423.5422    23.516962    22.171077    6.2665019     429.8087    5311.0218    -23666.62 
  494500   -95610.993   -84099.588    279.57996    20721    221132.36   -101.45303   -111.99545   -247.29803    54.934394    423.50923    23.533793    22.186944    6.2829836    429.79222    5280.9384   -23658.171 
  494600   -95693.995   -84117.453    281.16195    20721    220649.07    -129.3236   -217.36174   -10.987755    -159.6213    423.12126    23.518837    22.172844    6.4769706    429.59823    5296.7497   -23673.826 
  494700   -95705.945   -84124.802    281.27368    20721    220567.44   0.55036225    173.80614    -19.80432   -152.35073    423.17932    23.512873    22.167222     6.447938    429.62726     5294.048   -23673.638 
  494800   -95583.829   -84170.128    277.20697    20721    220361.47    8.7421182   -143.84076    97.523519    72.543594    422.84872    23.511078    22.165529    6.6132407    429.46196    5293.6811   -23636.179 
  494900   -95659.177   -84164.494    279.17381    20721    220916.33    135.53967    141.22661    285.91049   -20.518088    423.23561    23.529897    22.183271     6.419794    429.65541    5306.2392   -23643.412 
  495000   -95732.209   -84180.879    280.54961    20721    220814.97    73.905084    224.56315     202.5908    -205.4387     423.1025    23.528199     22.18167    6.4863514    429.58885    5328.8767   -23653.844 
  495100   -95767.924   -84153.987    282.07016    20721    220898.16    30.291143   -43.994686    47.534905    87.333212    422.76001     23.54216    22.194833    6.6575938    429.41761    5310.9343   -23656.113 
  495200   -95680.854    -84179.11    279.34531    20721    220883.49    78.999054    54.175128    -104.3662    287.18823    422.51494    23.548205    22.200531    6.7801285    429.29507    5341.9156   -23668.551 
  495300   -95715.035   -84140.454    281.11433    20721    220816.95   -8.3144247    6.2433802   -377.70006    346.51341    422.78167     23.53723    22.190185    6.6467655    429.42843    5332.4494   -23698.401 
  495400   -95693.273   -84124.356    280.97677    20721    220710.85   -64.300878    -72.37463   -368.41335    247.88534    422.64804    23.535294     22.18836    6.7135808    429.36162    5323.1444   -23704.959 
  495500   -95794.855   -84177.205    282.16033    20721    220782.01    36.057268   -93.611275    131.52495    70.258127    422.60476    23.540293    22.193073    6.7352213    429.33998    5340.7981   -23677.637 
  495600   -95828.404   -84179.068    282.92992    20721    220678.92   -82.510221    84.446998   -11.096246   -320.88142    422.58695    23.535292    22.188358    6.7441266    429.33107    5344.5843   -23677.568 
  495700   -95626.091   -84124.451    279.34279    20721     221019.4    32.508113   -15.171179   -47.084261    159.77978    422.78354    23.547965    22.200306    6.6458319    429.42937    5349.4762    -23729.42 
  495800   -95820.712   -84192.109    282.42636    20721    220358.43   -53.557909   -46.911343   -83.466784   -30.295598    422.27627    23.526846    22.180395    6.8994647    429.17574    5336.9499   -23671.935 
  495900   -95668.889   -84226.742    277.89785    20721    220376.53    107.51489    29.819789    25.469876    267.25502    422.03123    23.534642    22.187745    7.0219862    429.05321    5373.4023   -23682.565 
  496000   -95718.981    -84270.06    278.06238    20721    220150.01   -69.791936    -23.04424    147.76647   -334.09804    421.93191    23.525312    22.178949    7.0716434    429.00356    5383.0249   -23649.357 
  496100   -95696.886   -84238.403    278.29462    20721    220253.51    6.8930846    139.10846    71.047127   -189.47633     422.7965    23.506769    22.161467    6.6393498    429.43585    5381.5446   -23683.974 
  496200   -95764.287    -84224.82     280.2615    20721    220416.35    99.277929    88.835576    110.92977    98.068438    422.94474    23.511336    22.165773    6.5652297    429.50997    5355.4872    -23675.21 
  496300   -95733.184   -84223.172    279.54612    20721    220359.23    97.074832    59.780488    370.04923   -138.60523     422.7624    23.513358    22.167679    6.6564008     429.4188    5361.7644   -23685.213 
  496400   -95825.839   -84207.287    282.18225    20721    220522.79   -66.161506   -135.12502   -197.74425    134.38475     422.6173    23.526121    22.179711    6.7289518    429.34625    5358.3202    -23686.79 
  496500   -95744.625   -84198.111    280.43264    20721    220787.08     17.00946    307.75742   -151.55171   -105.17733    423.17156    23.524793     22.17846    6.4518186    429.62338    5355.6803   -23688.302 
  496600   -95845.595   -84228.912    282.13685    20721    220401.58   -58.656361   -122.40178   -184.84657    131.27927    422.48142    23.523436     22.17718    6.7968925    429.27831    5363.7486   -23678.689 
  496700   -95712.446    -84198.29    279.64677    20721    220527.62   -79.405096   -166.49976    203.58875   -275.30427    422.67432    23.524791    22.178458    6.7004392    429.37476    5368.8979   -23709.577 
  496800   -95760.129   -84232.451    279.97517    20721    220596.02    71.071931    43.285033   -66.134607    236.06537    422.41574     23.53564    22.188686    6.8297308    429.24547    5370.8983   -23684.903 
  496900   -95693.599   -84215.492    278.77125    20721     220524.4    6.1777663    110.52948    33.586561   -125.58274    422.43223     23.53136     22.18465     6.821487    429.25371    5378.1558   -23709.222 
  497000   -95737.306   -84213.643    279.87766    20721    220441.42    49.203782    69.285188   -211.02849    289.35465    422.56243    23.523307    22.177058    6.7563862    429.31881    5351.3618    -23690.33 
  497100   -95735.031   -84196.814    280.23112    20721    220259.55   -96.550055   -302.70671    81.865991   -68.809442    422.51121    23.515026    22.169252    6.7819975     429.2932     5371.266   -23727.001 
  497200   -95757.964   -84220.941    280.20213    20721    220303.18   -53.822242    37.644696   -219.77397    20.662548    422.64765    23.513559    22.167868    6.7137727    429.36143     5373.421   -23710.759 
  497300   -95679.472   -84233.192    277.99826    20721    220368.43   -36.600295    189.60523   -38.813827   -260.59228    422.45027    23.522534     22.17633     6.812465    429.26274    5380.4356   -23703.241 
  497400   -95901.134   -84237.417    283.27918    20721    220371.34    88.921428    78.886425    3.3338436    184.54401     422.7973    23.513034    22.167373    6.6389485    429.43625    5403.4553    -23732.16 
  497500   -95841.912   -84268.346    281.08968    20721    220523.33    23.620629   -145.26608   -26.288073    242.41604    422.74054     23.52272    22.176506    6.6673319    429.40787    5391.8531   -23680.758 
  497600   -95854.052   -84291.193    280.82964    20721    220437.78   -117.44781   -131.65531    10.760538   -231.44867    422.42242    23.527011     22.18055    6.8263904    429.24881    5407.0514   -23672.865 
  497700   -95808.045   -84265.886    280.32688    20721    220377.74    64.815649   -62.109155     217.2739    39.282205    422.35806    23.525599    22.179219    6.8585721    429.21663    5396.6177   -23697.465 
  497800   -95780.444   -84217.513    280.83139    20721    220472.84   -42.030739   -73.393877    94.356961    -147.0553    422.11354    23.537489    22.190429    6.9808319    429.09437    5383.6149   -23725.359 
  497900   -95753.977   -84253.388    279.31725    20721    220169.84    101.17779    204.97967    39.117487    59.436224    422.15693      23.5201    22.174035    6.9591342    429.11607    5419.4596   -23744.972 
  498000   -95730.672   -84244.456    278.96818    20721    220392.08   -27.110695   -150.64121   -104.70635    174.01547    422.48311    23.522882    22.176658    6.7960453    429.27915    5430.0604   -23752.296 
  498100   -95761.165   -84265.878     279.1885    20721    220531.73   -27.544327   -225.62829    182.59179    -39.59648    422.47929     23.53044    22.183783    6.7979548    429.27725    5438.2061   -23735.673 
  498200   -95911.618   -84271.314    282.71056    20721    220425.39    11.016575   -86.415334   -68.574009    188.03907    422.31265    23.529407    22.182809    6.8812746    429.19393     5444.464   -23744.043 
  498300   -95852.141    -84285.73    280.91591    20721    220284.23    88.695047    166.33334    415.64499   -315.89318    422.58879    23.514185    22.168459     6.743206    429.33199     5452.368   -23750.205 
  498400   -95813.783   -84282.371    280.06587    20721    220507.94   -6.6537848   -95.279712     237.7189   -162.40054    422.76552    23.521204    22.175076    6.6548389    429.42036    5465.3259   -23751.706 
  498500   -95785.349   -84270.457    279.66464    20721    220673.92    75.322644    111.93343   -49.009352    163.04386     423.0948    23.520897    22.174786    6.4902019      429.585    5443.8439   -23745.098 
  498600   -95822.371   -84242.281    281.24811    20721    220790.21    39.902933    73.698133    22.832882    23.177785    423.13823    23.525886     22.17949    6.4684868    429.60671    5456.9195   -23783.389 
  498700   -95772.958   -84206.474    280.91767    20721    221107.55   -5.7323414   -104.63393    -156.9487    244.38561    423.04898     23.54527    22.197765    6.5131093    429.56209     5453.887   -23802.089 
  498800   -95782.384   -84197.108    281.37408    20721    221425.26   -29.352178    91.868445   -239.68061    59.755626    423.38629    23.552792    22.204857    6.3444557    429.73074    5465.6983   -23813.639 
  498900   -95831.318   -84232.778    281.69623    20721    220648.11    45.845448     110.6957     25.31389    1.5267535    423.13597    23.518377    22.172411    6.4696133    429.60559    5457.5738   -23802.122 
  499000   -95638.992   -84184.686    278.19317    20721    220876.71     108.5921    162.94699    5.7483094      157.081    423.11179    23.531229    22.184527    6.4817042     429.5935    5443.5145   -23832.902 
  499100   -95772.864   -84174.499    281.69197    20721    221078.48   -20.892052    103.28902    8.8485643   -174.81374    423.06474    23.543284    22.195892    6.5052317    429.56997    5449.2119   -23837.499 
  499200    -95736.29   -84165.438    281.02374    20721    220736.18    15.911524   -97.010262    50.277953     94.46688     423.0261    23.526125    22.179715    6.5245508    429.55065    5439.6537    -23852.59 
  499300   -95752.672   -84166.849    281.38736    20721    220760.29   -1.2875491   -131.14835   -43.365156    170.65086      423.159    23.523715    22.177443    6.4581008     429.6171    5441.4129   -23851.468 
  499400    -95746.22   -84215.254    280.05503    20721    220769.33    49.250801    36.117803    41.813363    69.821237    423.12954    23.525015    22.178669    6.4728296    429.60237    5446.4801   -23810.913 
  499500   -95646.259   -84216.925    277.58666    20721    220849.63    88.054783   -16.453948    93.484438    187.13386    422.89678    23.535768    22.188806    6.5892099    429.48599    5471.5822   -23833.843 
  499600   -95683.888   -84260.893    277.43271    20721    220718.37     100.0708    47.747157     146.3563    106.10894    422.57978    23.537596     22.19053    6.7477096    429.32749    5474.2443    -23796.78 
  499700   -95759.148   -84237.368    279.83195    20721     221092.2   -20.541213   -161.07442    82.007643     17.44314    422.97764    23.546438    22.198866     6.548782    429.52642    5476.5516   -23810.739 
  499800   -95723.181   -84206.585    279.70603    20721    221090.83   -74.039617      81.7305   -156.87837   -146.97098    422.74766    23.552769    22.204834    6.6637675    429.41143    5485.0561   -23845.417 
  499900    -95718.05   -84249.441    278.54056    20721     220929.6    33.686288    72.025493    190.98401   -161.95064    423.00455    23.537029    22.189996    6.5353231    429.53988    5482.6206   -23813.154 
  500000   -95627.773    -84213.92     277.2107    20721    220775.78    96.978476    105.22228    155.16675    30.546401    423.21299    23.523039    22.176806    6.4311045     429.6441    5462.8888   -23838.363 
Loop time of 72272.4 on 32 procs for 500000 steps with 20721 atoms

Performance: 1.195 ns/day, 20.076 hours/ns, 6.918 timesteps/s
97.3% CPU use with 32 MPI tasks x no OpenMP threads

MPI task timing breakdown:
Section |  min time  |  avg time  |  max time  |%varavg| %total
---------------------------------------------------------------
Pair    | 13564      | 14577      | 17037      | 904.6 | 20.17
Bond    | 0.82371    | 0.93489    | 1.1335     |   7.8 |  0.00
Kspace  | 13485      | 15952      | 16968      | 866.6 | 22.07
Neigh   | 10764      | 12904      | 14995      |1498.9 | 17.85
Comm    | 412.71     | 1901.6     | 4335.1     |2539.4 |  2.63
Output  | 6.8931     | 32.354     | 44.478     | 206.4 |  0.04
Modify  | 25364      | 26817      | 29987      | 890.0 | 37.11
Other   |            | 88.39      |            |       |  0.12

Nlocal:    647.531 ave 699 max 602 min
Histogram: 3 0 4 9 4 4 0 2 3 3
Nghost:    7269.84 ave 7880 max 6751 min
Histogram: 3 6 3 4 4 0 3 0 7 2
Neighs:    238558 ave 274218 max 216885 min
Histogram: 5 6 9 0 2 2 1 3 1 3
FullNghs:  477114 ave 545716 max 430930 min
Histogram: 3 6 11 0 1 3 0 3 2 3

Total # of neighbors = 15267662
Ave neighs/atom = 736.821
Ave special neighs/atom = 2
Neighbor list builds = 500000
Dangerous builds not checked
write_data production.R1
PPPM initialization ...
  extracting TIP4P info from pair style
WARNING: Using 12-bit tables for long-range coulomb (../kspace.cpp:316)
  G vector (1/distance) = 0.345931
  grid = 400 48 48
  stencil order = 5
  estimated absolute RMS force accuracy = 0.000401443
  estimated relative force accuracy = 1.20893e-06
  using double precision FFTs
  3d grid and FFT values/proc = 67260 38400
write_restart restartproduction.R1
PPPM initialization ...
  extracting TIP4P info from pair style
WARNING: Using 12-bit tables for long-range coulomb (../kspace.cpp:316)
  G vector (1/distance) = 0.345931
  grid = 400 48 48
  stencil order = 5
  estimated absolute RMS force accuracy = 0.000401443
  estimated relative force accuracy = 1.20893e-06
  using double precision FFTs
  3d grid and FFT values/proc = 67260 38400
Total wall time: 20:04:33
