LAMMPS (30 Jul 2016)
# Sets up LAMMPS simulation for transient melting of ice: TIP4P/Ice
# Ensure cold thermostats do not move
# Thinbox: 16x1x1
# Defects
# Order param l=2

#### setting MD parameters ####
units real
boundary p p p
atom_style full

# read ice box in restart file
#read_data ice-ih-restart.data
read_restart restart.state
  orthogonal box = (0.449251 0.0242422 0.0228548) to (435.626 23.507 22.1616)
  32 by 1 by 1 MPI processor grid
  20736 atoms
  13824 bonds
  6912 angles
  2 = max # of 1-2 neighbors
  1 = max # of 1-3 neighbors
  1 = max # of 1-4 neighbors
  2 = max # of special neighbors

#replicate 16 boxes, 16x1x1


#### force field definition ####
pair_style      lj/cut/tip4p/long 2 1 1 1 0.1577 10.0
pair_modify	tail yes

kspace_style	pppm/tip4p 1.0e-6

bond_style	harmonic
angle_style	harmonic
dihedral_style	none
improper_style	none

bond_coeff	1 450.0 0.9572
angle_coeff	1 55.0 104.52


# reset pair coeff
pair_coeff	* * 0.0 0.0

#OO
pair_coeff	2 2 0.21085 3.1668
#OH
pair_coeff	* 1 0.0000 0.0000

neighbor        2.0 bin
neigh_modify    every 1 delay 1 check no

timestep	2.0
fix		constraints all shake 0.000001 20 0 b 1 a 1
  0 = # of size 2 clusters
  0 = # of size 3 clusters
  0 = # of size 4 clusters
  6912 = # of frozen angles

group water type 1 2
20736 atoms in group water

#*********** SIMULATION PARAMETER TO ADJUST ****************
#Box dimensions
variable lx equal lx
variable ly equal ly
variable lz equal lz

### Temperature of the hot and cold regions ####
variable thi equal 375
variable tlo equal 215
variable runpressure equal 0.986923
# Configuration equilibrated in density and temperature

# Define dx here

variable lx equal lx
variable ly equal ly
variable lz equal lz

variable xlo equal xlo
variable xhi equal xhi


variable dx equal 2.0

### ADD IN DEFECTS AT THE CENTRE OF THE HOT THERMOSTAT ###
variable x1 equal ${lx}/4.0
variable x1 equal 435.176698663597/4.0
variable y1 equal ${ly}/2.0
variable y1 equal 23.482715668291/2.0
variable z1 equal ${lz}/2.0
variable z1 equal 22.1387904460122/2.0

region kill1 sphere ${x1} ${y1} ${z1} 3
region kill1 sphere 108.794174665899 ${y1} ${z1} 3
region kill1 sphere 108.794174665899 11.7413578341455 ${z1} 3
region kill1 sphere 108.794174665899 11.7413578341455 11.0693952230061 3
delete_atoms region kill1 compress no bond yes mol yes
Deleted 12 atoms, new total = 20724
Deleted 8 bonds, new total = 13816
Deleted 4 angles, new total = 6908




variable thip equal ${thi}*2.0/3.0
variable thip equal 375*2.0/3.0
variable tlop equal ${tlo}*2.0/3.0
variable tlop equal 215*2.0/3.0
variable cbl equal ${lx}*3.0/4.0-${dx}
variable cbl equal 435.176698663597*3.0/4.0-${dx}
variable cbl equal 435.176698663597*3.0/4.0-2
variable cbh equal ${lx}*3.0/4.0+${dx}
variable cbh equal 435.176698663597*3.0/4.0+${dx}
variable cbh equal 435.176698663597*3.0/4.0+2
variable hbl equal ${lx}*1.0/4.0-${dx}
variable hbl equal 435.176698663597*1.0/4.0-${dx}
variable hbl equal 435.176698663597*1.0/4.0-2
variable hbh equal ${lx}*1.0/4.0+${dx}
variable hbh equal 435.176698663597*1.0/4.0+${dx}
variable hbh equal 435.176698663597*1.0/4.0+2


#***************************************************
## EQUILIBRATION PERIOD - to reach the steady state ###
#run 0

#reset the timestep to start your production run
reset_timestep 0

# define a group to perform averages
#group s1 type 1
###*** SYSTEM THERMOSTATTING: HOT and COLD regions ***###

fix NVE all nve
fix PRESS all press/berendsen aniso ${runpressure} ${runpressure} 500000 couple yz
fix PRESS all press/berendsen aniso 0.986923 ${runpressure} 500000 couple yz
fix PRESS all press/berendsen aniso 0.986923 0.986923 500000 couple yz


### Apply THERMOSTATS ###

#set up the "hot region" in the middle of the box
region hot block ${hbl} ${hbh} 0 ${ly} 0 ${lz} units box
region hot block 106.794174665899 ${hbh} 0 ${ly} 0 ${lz} units box
region hot block 106.794174665899 110.794174665899 0 ${ly} 0 ${lz} units box
region hot block 106.794174665899 110.794174665899 0 23.482715668291 0 ${lz} units box
region hot block 106.794174665899 110.794174665899 0 23.482715668291 0 22.1387904460122 units box


#set up the "cold region" at the left end of the box
region cold block ${cbl} ${cbh} 0 ${ly} 0 ${lz} units box
region cold block 324.382523997698 ${cbh} 0 ${ly} 0 ${lz} units box
region cold block 324.382523997698 328.382523997698 0 ${ly} 0 ${lz} units box
region cold block 324.382523997698 328.382523997698 0 23.482715668291 0 ${lz} units box
region cold block 324.382523997698 328.382523997698 0 23.482715668291 0 22.1387904460122 units box

#set up the "cold region" at the right end of the box
#region cold2 block ${h2bl} ${xhi} 0 ${ly} 0 ${lz} units box


#Cold regions  unification
#region cold union 2 cold1 cold2 units box

#Create group of cold molecules
####group cool_ice region cold
####group cool_ice include molecule

####compute cold_temp cool_ice temp
####fix cold_rescale water temp/rescale 1 ${tlo} ${tlo} 0.0001 1.0
####fix_modify cold_rescale temp cold_temp

#this calculates the temperature using only the atoms in the "hot region"
#compute hot_temp all temp/region hot

# calculate the temperature using only WATER in the "hot region"
compute hot_temp water temp/region hot

#this calculates the temperature using only WATER in the "cold region"
compute cold_temp water temp/region cold


#set up a basic velocity rescale for the hot region WATER with thip
fix hot_rescale water temp/rescale 1 ${thip} ${thip} 1.0 1.0
fix hot_rescale water temp/rescale 1 250 ${thip} 1.0 1.0
fix hot_rescale water temp/rescale 1 250 250 1.0 1.0
#change the thermostat to only act on the "hot region"
#this is done by passing it the "hot temp" compute that we defined above
fix_modify hot_rescale temp hot_temp

#set up a basic velocity rescale for the cold region
fix cold_rescale water temp/rescale 1 ${tlop} ${tlop} 1.0 1.0
fix cold_rescale water temp/rescale 1 143.333333333333 ${tlop} 1.0 1.0
fix cold_rescale water temp/rescale 1 143.333333333333 143.333333333333 1.0 1.0
#change the thermostat to only act on the "cold region"
#this is done by passing it the "cold temp" compute that we defined above
fix_modify cold_rescale temp cold_temp

### Ensure MOMENTUM CONSERVATION ###

#ensure that linear momentum is conserved despite the "thermostatting" by velocity rescaling
fix cons_mom all momentum 1 linear 1 1 1


thermo 100
thermo_style custom step pe etotal temp atoms vol press pxx pyy pzz lx ly lz xlo xhi f_cold_rescale f_hot_rescale

group ox type 2
6908 atoms in group ox
group hy type 1
13816 atoms in group hy
compute KE all ke/atom
variable TEMP atom c_KE*4186.8/(1.3806488*6.02214129)

compute cc1 all chunk/atom bin/1d x center 2 units box
#fix TPROFILE all ave/chunk 1 500 500 cc1 v_TEMP density/number file temp.dat
fix TPROFILEox ox ave/chunk 1 500 500 cc1 v_TEMP density/number file temp-ox.dat
fix TPROFILEhy hy ave/chunk 1 500 500 cc1 v_TEMP density/number file temp-hy.dat

compute orderparam ox orientorder/atom degrees 1 2 nnn 4 cutoff 3.5
compute cc2 ox chunk/atom bin/1d x center 2 units box
#fix ORDERPARAM all ave/chunk 1 500 500 cc2 c_orderparam[1] file order-param.dat
fix ORDERPARAM all ave/chunk 1 500 500 cc2 c_orderparam[1] file order-param.dat

restart 50000 config.restart

run 500000
PPPM initialization ...
  extracting TIP4P info from pair style
WARNING: Using 12-bit tables for long-range coulomb (../kspace.cpp:316)
  G vector (1/distance) = 0.345605
  grid = 405 48 48
  stencil order = 5
  estimated absolute RMS force accuracy = 0.000405877
  estimated relative force accuracy = 1.22229e-06
  using double precision FFTs
  3d grid and FFT values/proc = 67260 38880
Neighbor list info ...
  2 neighbor list requests
  update every 1 steps, delay 1 steps, check no
  max neighbors/atom: 2000, page size: 100000
  master list distance cutoff = 12.3154
  ghost atom cutoff = 12.3154
  binsize = 6.1577 -> bins = 71 4 4
Memory usage per processor = 12.7898 Mbytes
Step PotEng TotEng Temp Atoms Volume Press Pxx Pyy Pzz Lx Ly Lz Xlo Xhi cold_res hot_resc 
       0   -103773.58     -94854.4    216.59073    20724    226239.19     227.6594    184.81849    596.73794   -98.578218     435.1767    23.482716     22.13879   0.44925067    435.62595            0            0 
     100   -103526.29   -94590.659    216.99023    20724    226315.41    14.959749   -125.93058    266.24973   -95.439904    435.21098    23.485746    22.141647   0.43211044    435.64309    17.013143   -280.21804 
     200   -103573.14   -94519.246    219.86202    20724    226580.05    82.183474   -24.739685   -112.39284    383.68294    435.30021    23.497064    22.152318   0.38749326    435.68771    7.9207299   -340.60197 
     300   -103545.73   -94492.627    219.84281    20724    226379.31   -45.048743   -93.447619   -212.13375    170.43514    435.24291      23.4882    22.143961   0.41614581    435.65905    16.030616   -373.55485 
     400   -103522.92   -94444.468    220.45836    20724    226598.97    45.830136   -13.763657    299.83539   -148.58133    435.18743    23.501091    22.156114   0.44388679    435.63131   -12.321351   -393.38142 
     500    -103462.1    -94411.23    219.78846    20724    226422.76     5.865956   -103.29598    71.043097     49.85075    435.32645      23.4882     22.14396   0.37437656    435.70082   -14.518314   -426.19339 
     600   -103468.27   -94352.438      221.366    20724    226643.19    57.814675    32.797863    34.705488    105.94068     435.5534    23.493507    22.148964   0.26089985     435.8143   -12.795677   -486.00721 
     700   -103466.04   -94369.893    220.88807    20724    226488.64   -4.9122498    12.280832   -91.933479    64.915897    435.27431    23.493023    22.148508   0.40044564    435.67475    2.5593749   -483.51024 
     800   -103429.71   -94350.353    220.48029    20724    226656.05   -28.423686    27.512296   -358.21003    245.42667    435.38071    23.498832    22.153985   0.34724702    435.72795    3.5436531   -499.14132 
     900   -103479.49   -94336.895    222.01608    20724    226566.29    34.840973    199.86668    109.09017   -204.43393    435.34756    23.495073    22.150441   0.36381905    435.71138    5.4074589   -521.06194 
    1000   -103458.71   -94299.455    222.42053    20724    226618.19   -22.888253   -242.71359    36.134248    137.91458    435.27308    23.499774    22.154873   0.40106109    435.67414    12.002022   -561.42196 
    1100    -103354.8   -94280.549    220.35637    20724    226451.11    21.611927   -39.642265    19.186612    85.291434    435.34034    23.489295    22.144994   0.36743111    435.70777    26.537025   -602.43798 
    1200   -103420.03   -94233.573    223.08111    20724    226641.54    38.718607    21.383649    32.144011    62.628161    435.46488    23.495809    22.151135   0.30516135    435.77004    1.4040857   -621.91308 
    1300   -103308.54   -94206.795    221.02392    20724    226491.25    26.804018    -94.77786   -20.771211    195.96113    435.26235    23.493482     22.14894   0.40642583    435.66877    6.0721865   -656.02018 
    1400   -103314.04   -94161.421    222.25944    20724    226628.63    79.824321    151.79182    90.925402   -3.2442614    435.42811    23.496132    22.151438    0.3235426    435.75166   -9.9816701   -686.54345 
    1500   -103310.56   -94185.125     221.5993    20724    226548.57   -49.046034   -115.53714    77.763514   -109.36448      435.346    23.494197    22.149614   0.36459785     435.7106  -0.12573515   -667.84288 
    1600    -103370.7   -94134.532    224.28826    20724    226674.51    48.434859   -50.289943    159.97296     35.62156    435.38275    23.499734    22.154835   0.34622668    435.72897     11.73175   -734.34467 
    1700   -103279.27    -94102.52    222.84539    20724    226652.43    72.271384   -15.932568    60.846188    171.90053    435.29524    23.500951    22.155983   0.38997832    435.68522  0.036029787    -755.1568 
    1800   -103318.89   -94135.307    223.01124    20724     226518.9    51.350219   -95.699623    80.372926    169.37735     435.4143    23.490816    22.146427   0.33045038    435.74475   -2.7443802   -724.78467 
    1900   -103292.49   -94041.245     224.6544    20724    226643.55     98.62853   -15.770681    98.534744    213.12153    435.39304    23.497852     22.15306   0.34108046    435.73412   -9.0595099   -811.82325 
    2000    -103252.8   -94026.351    224.05223    20724    226446.34   -33.255723    88.151834   -153.85242   -34.066585     435.2542    23.491372    22.146951   0.41050145     435.6647   -27.048994   -808.45403 
    2100   -103238.58   -94003.268     224.2675    20724    226731.66     13.26433     59.96766   -265.88008    245.70541     435.4566    23.500703    22.155749   0.30929794     435.7659   -23.637116   -832.09737 
    2200   -103294.32    -94018.13    225.26017    20724    226528.29   -79.672807   -110.56426   -354.38832    225.93416    435.18679    23.497442    22.152674   0.44420573    435.63099   -1.9586202   -840.76967 
    2300   -103231.77   -93994.093    224.32505    20724    226413.81   -5.6852762   -47.029646   -30.663474    60.637292    435.19322    23.491331    22.146912   0.44099226    435.63421   -9.0420383   -865.82723 
    2400    -103303.8   -94011.734    225.64584    20724    226634.69   -32.401613   -134.04905   -0.6629148    37.507124    435.45057     23.49584    22.151164   0.31231594    435.76288   -12.065564   -839.97527 
    2500   -103257.52   -94000.614    224.79188    20724     226526.2    13.705625    56.429471      -43.479    28.166404    435.30487    23.494147    22.149567   0.38516343    435.69004    -7.785768   -860.11243 
    2600    -103290.8   -93987.912    225.90854    20724    226613.88   -4.5775045    -129.4746    244.19689   -128.45481    435.27182    23.499585    22.154694   0.40168763    435.67351   -3.7676386   -874.94427 
    2700   -103137.75   -93901.716    224.28506    20724    226698.86    28.603856    54.933413   -113.10473    143.98288    435.53015    23.497019    22.152275   0.27252655    435.80267   -17.219563   -946.91426 
    2800    -103189.6   -93871.095     226.2877    20724    226650.99    54.150735   -93.154638    92.955412    162.65143    435.30959    23.500489    22.155547   0.38280307     435.6924    2.4187415   -1001.1384 
    2900   -103126.08   -93868.179    224.81599    20724    226640.45    8.3347371   -153.79088    242.22258   -63.427486    435.43735    23.496495    22.151782   0.31892501    435.75627   -11.212578   -988.32051 
    3000   -103113.31    -93862.03    224.65523    20724    226649.59    95.927177    74.743881    91.992307    121.04534     435.6515    23.491193    22.146783   0.21184951    435.86335   0.52726294   -1011.4564 
    3100   -103195.45   -93880.175    226.20924    20724    226725.16   -29.486419    102.64805   -37.141653   -153.96566    435.36869    23.502739    22.157668    0.3532554    435.72194   -4.9538767   -982.88114 
    3200   -103141.78   -93818.782    226.39687    20724    226542.74   -5.1212132    106.44398   -185.08841    63.280791    435.35638    23.493614    22.149065   0.35940853    435.71579   -11.425007   -1043.5656 
    3300   -103150.99   -93776.951    227.63621    20724     226625.1   -25.755076     -28.4685   -116.76281    67.966084    435.42765    23.495961    22.151278   0.32377354    435.75143   -12.458308   -1081.8635 
    3400   -103044.46   -93754.237    225.60105    20724    226571.68    71.542952   -20.744719    -133.6671    369.04067    435.33905    23.495583    22.150921   0.36807681    435.70712    -42.69399   -1080.7226 
    3500   -103166.56   -93775.189     228.0573    20724    226430.27   -89.866204   -31.620337   -307.66818    69.689906    435.21531    23.491588    22.147155   0.42994556    435.64525    -18.09736   -1081.3825 
    3600   -103016.85   -93707.752    226.05934    20724    226477.26    10.843057   -9.7638617    33.536039    8.7569941    435.34055    23.490646    22.146267   0.36732353    435.70788   -4.0492242   -1166.6291 
    3700   -103127.78    -93695.13    229.05951    20724    226537.86    44.727465    238.37129   -102.58863   -1.6002693     435.5501    23.488136    22.143901   0.26255102    435.81265   -1.7500379   -1183.9892 
    3800   -103071.67   -93686.087    227.91669    20724    226577.41   -19.514426   -40.033912    72.994856   -91.504222    435.50727    23.491341    22.146922   0.28396564    435.79123   -5.6073782   -1185.9294 
    3900   -102996.99   -93612.642    227.88659    20724    226627.73   -30.255771   -6.0038256    -4.010875   -80.752613    435.37793    23.497439    22.152671   0.34863641    435.72656   -21.737157   -1240.5676 
    4000   -103004.42    -93612.37    228.07381    20724    226488.39   -41.012993   -67.423949   -159.75636    104.14133    435.29548    23.492439    22.147957   0.38985916    435.68534   -25.079492   -1241.6647 
    4100   -103086.33   -93646.148    229.24248    20724    226634.65    6.1760381   -120.74749   -202.06731    341.34291    435.24321    23.501434    22.156438   0.41599456    435.65921   -5.5484905   -1228.5347 
    4200   -103071.88   -93676.326    228.15872    20724    226590.31    40.300354   -31.863446    67.644399    85.120108    435.26893    23.498441    22.153616   0.40313738    435.67206    4.7531794   -1213.3092 
    4300   -102997.09   -93632.257    227.41265    20724    226388.16   -79.377934   -44.404672    8.7940678    -202.5232     435.2348    23.488878      22.1446   0.42020212      435.655    6.9503391   -1258.2808 
    4400   -103010.93   -93583.589    228.93075    20724    226737.65    26.502953    43.366217     80.51901   -44.376369    435.45064    23.501175    22.156193   0.31228062    435.76292  -0.68977915   -1298.3822 
    4500   -103049.07   -93578.962    229.96931    20724    226588.88   -47.245341   -132.05726    60.032253   -69.711016      435.308    23.497312    22.152552   0.38360095     435.6916    2.7067027   -1304.5485 
    4600   -103051.51   -93560.056    230.48749    20724    226651.44    16.633484   -14.985109    308.63177    -243.7462    435.39726    23.498147    22.153338    0.3389712    435.73623   -11.722556   -1313.5795 
    4700   -102933.65   -93534.733    228.24055    20724    226540.04   -19.656051    88.472157     17.99389    -165.4342    435.21822    23.497203    22.152449   0.42848841    435.64671   -16.674657   -1334.6956 
    4800   -102992.72   -93545.963    229.40222    20724    226631.73     12.06301   -122.12893    121.24587    37.072095    435.51479    23.493954    22.149386   0.28020413      435.795   -1.3125223   -1339.0347 
    4900    -102974.6   -93506.719    229.91506    20724    226640.09   -15.295649   -80.176215   -127.47417    161.76344    435.47987    23.495329    22.150682   0.29766647    435.77753   -5.7575424   -1375.2125 
    5000   -102923.29   -93502.599    228.76918    20724    226680.69    -2.741639   -170.69584   -97.327293    259.79822    435.53153     23.49604    22.151353   0.27183296    435.80337   -5.7766726   -1377.3137 
    5100   -102955.86   -93522.747    229.07092    20724    226808.74    -38.20237   -9.7061376   -243.90323    139.00226    435.41263    23.505885    22.160633   0.33128687    435.74391    20.615401   -1380.3736 
    5200   -102927.91   -93497.695    229.00044    20724    226576.87   -17.063722    41.002962    5.0456668   -97.239793    435.31984     23.49637    22.151664   0.37768102    435.69752    24.522364   -1417.5902 
    5300    -102942.8   -93516.934    228.89478    20724    226782.29   -35.540681    3.2375758    192.74457   -302.60419    435.34129    23.506439    22.161157   0.36695517    435.70824    -6.183664   -1361.8631 
    5400   -103015.63   -93510.943    230.80906    20724    226784.23   -25.054902   -23.212141   -181.60557    129.65301    435.43845    23.503918    22.158779    0.3183754    435.75682    1.5170947    -1378.306 
    5500   -102951.45   -93473.754    230.15352    20724    226724.86    6.4935639   -144.94816    161.44812    2.9807345    435.27656     23.50521    22.159998   0.39931772    435.67588   -6.6103172   -1410.6731 
    5600    -102998.2   -93461.525    231.58576    20724    226695.54   -88.907512    -91.11178   -78.569918   -97.040838    435.21216     23.50543    22.160204   0.43152218    435.64368  -0.58667422   -1426.3924 
    5700   -102930.79   -93454.369    230.12258    20724    226417.63    18.884035   -98.990557    99.078887    56.563776     434.9654     23.49768    22.152898    0.5548991     435.5203   -29.110165   -1418.2546 
    5800   -102885.92   -93457.981    228.94524    20724    226612.59    31.336182   -5.7733899   -20.525348    120.30728    435.59464    23.490809     22.14642   0.24027968    435.83492   -7.7180514   -1433.5476 
    5900   -102962.47   -93434.555    231.37297    20724     226582.5   -19.511876    94.262993 -0.011872864   -152.78675    435.29673    23.497286    22.152526   0.38923577    435.68596    -0.891104   -1462.4869 
    6000   -102854.73   -93439.246     228.6427    20724    226643.35    3.0371809   -31.182041    54.743799   -14.450215    435.40138    23.497616    22.152838   0.33690808    435.73829   -1.4716777   -1457.6147 
    6100   -102930.35   -93447.681    230.27427    20724    226573.96   -12.253895    130.72619   -13.799959   -153.68792    435.28986    23.497028    22.152284   0.39267016    435.68253    8.8440632   -1462.6046 
    6200   -102912.69   -93378.682    231.52085    20724    226652.51    5.2579481    152.15778    31.824992   -168.20893    435.40233    23.498065    22.153262   0.33643426    435.73877    6.7607786   -1529.2048 
    6300   -102858.57   -93335.626    231.25228    20724    226493.41    52.016258    59.801997    169.71683   -73.470057    435.38765    23.490213    22.145859   0.34377686    435.73142     13.57832   -1585.8372 
    6400   -102802.97   -93354.064    229.45434    20724    226556.64    46.287569    -28.76668    264.12397    -96.49458    435.33085    23.495024    22.150394   0.37217412    435.70303    24.556347   -1575.8061 
    6500   -102807.97   -93354.589    229.56294    20724    226503.58    80.892377    193.58853   -274.70974    323.79834    435.20955    23.495546    22.150887   0.43282707    435.64237    34.641894   -1590.9676 
    6600   -102860.17   -93320.758    231.65228    20724    226549.36    -30.57189   -64.634676   -142.40192    115.32093     435.2191    23.497663    22.152882   0.42805169    435.64715    8.1904857   -1592.1845 
    6700   -102840.86   -93343.914     230.6209    20724     226630.7    75.201569    212.85536    54.557717   -41.808368    435.16005    23.503475    22.158362   0.45757657    435.61762    12.490696   -1577.6786 
    6800   -102892.62   -93312.602    232.63826    20724    226506.52   -6.1661056   -147.54714    192.18862   -63.139796    435.25397      23.4945      22.1499   0.41061642    435.66458   -6.3750373   -1591.9421 
    6900   -102834.56   -93330.626    230.79063    20724    226560.37   -39.100835   -82.384343   -198.32439    163.40623    435.17989    23.499292    22.154418   0.44765338    435.62755     14.45641   -1591.6217 
    7000   -102630.49   -93293.414    226.73868    20724    226603.87    171.11385    259.52908   -94.340179    348.15266    435.04344    23.505233     22.16002   0.51588246    435.55932   -4.2357011   -1619.8823 
    7100   -102756.87   -93261.385    230.58544    20724    226674.92   -33.759746    76.316901   -9.9709253   -167.62521    435.27722    23.502604     22.15754   0.39899213    435.67621    9.8647243   -1654.5923 
    7200   -102834.46   -93279.375    232.03282    20724    226515.31    -37.82373   -36.612581   -293.27922    216.42061    435.09436    23.499264    22.154392   0.49041756    435.58478    5.3477858     -1638.36 
    7300   -102782.94   -93283.311    230.68621    20724    226780.14     10.36252     -262.908      160.997    132.99856    435.16069    23.511205     22.16565   0.45725734    435.61794    45.018128   -1669.6417 
    7400   -102817.88   -93285.961    231.47015    20724    226576.34   -63.657227   -106.94096   -300.89941    216.86869    435.00073    23.504959    22.159761   0.53723357    435.53797    32.270775   -1657.8268 
    7500    -102887.5   -93272.812    233.48025    20724    226717.86   -31.388798    156.87881   -61.928815   -189.11639    435.38661    23.501877    22.156855   0.34429316    435.73091     61.52169   -1699.1557 
    7600   -102824.53   -93233.778    232.89902    20724    226798.34   -13.714113     17.60325    205.86705   -264.61264    435.42717    23.504953    22.159755   0.32401442    435.75119     27.51436   -1704.1075 
    7700   -102783.25   -93198.088    232.76327    20724    226767.54   -43.939714   -89.513765   -210.62798    168.32261     435.3452     23.50557    22.160336    0.3650004     435.7102    76.336401   -1788.3491 
    7800   -102677.16   -93212.979     229.8252    20724    226762.72    25.777149    84.929243     22.76961   -30.367407     435.3586    23.504958     22.15976   0.35829865     435.7169    48.919349   -1749.3573 
    7900    -102655.9   -93162.101    230.54458    20724    226695.67   -42.631138    14.141435    416.11856   -558.15341    435.49686    23.497752    22.152966   0.28916782    435.78603    52.527701   -1803.4835 
    8000   -102762.34    -93168.45    232.97524    20724    226606.87    -42.94839    74.682894   -111.01135   -92.516711     435.3598    23.496847    22.152113   0.35770022     435.7175    50.453543   -1799.4858 
    8100   -102644.73   -93173.216     230.0033    20724    226537.47   -50.875066   -184.77007   -186.83999    218.98487    435.36129    23.493208    22.148683   0.35695476    435.71825    56.997808   -1802.6522 
    8200   -102707.36   -93161.207    231.81587    20724    226772.18     87.42442    203.14635    -27.55351    86.680419    435.41213    23.504004     22.15886   0.33153366    435.74367     70.71646   -1830.4964 
    8300   -102732.46   -93147.541    232.75724    20724    226648.17     -8.70071   -123.79575   -21.286406    118.98002    435.44792     23.49661     22.15189   0.31363914    435.76156    50.119475   -1823.1173 
    8400   -102620.01    -93139.89    230.21235    20724    226471.22    84.098331    5.5762356     269.0181    -22.29934    435.16902    23.494962    22.150336    0.4530895    435.62211    55.029558   -1844.7067 
    8500   -102599.38   -93106.799    230.51492    20724    226740.42   -7.1940283     172.7451    91.860793   -286.18798    435.49068    23.500238     22.15531   0.29226171    435.78294    41.246628   -1853.6687 
    8600   -102766.36   -93108.985    234.51672    20724    226442.79   -60.970003    48.564782    98.275796   -329.75059    435.39266    23.487452    22.143256   0.34127206    435.73393     63.70061   -1882.4664 
    8700   -102643.12   -93068.873    232.49822    20724    226584.89   -4.1330865   -226.93671    191.82823    22.709215    435.39328    23.494804    22.150187   0.34095981    435.73424    31.416371   -1891.0321 
    8800   -102622.85   -93053.008    232.39108    20724    226639.81   -24.542842   -24.460877    55.949786   -105.11743    435.30948    23.499913    22.155003   0.38286087    435.69234    43.940683   -1918.6926 
    8900   -102547.14   -93026.742     231.1904    20724    226700.75    34.128687    117.67598   -16.374516    1.0845989    435.53191    23.497069    22.152323   0.27164597    435.80355    26.805395   -1928.6694 
    9000    -102563.6   -93014.352    231.89101    20724    226694.33     7.364317    15.016862    259.99906   -252.92297      435.272    23.503751    22.158622   0.40160202     435.6736    41.132576   -1954.7322 
    9100   -102619.22   -93020.895    233.08274    20724    226700.16     48.82617   -45.867712    63.859353    128.48687    435.39238    23.500804    22.155844   0.34140899    435.73379    25.240399   -1935.5768 
    9200   -102673.51   -93043.438    233.85375    20724    226684.96    38.105327    11.161689    51.936928    51.217363    435.38852     23.50012    22.155199   0.34333795    435.73186    20.065791    -1911.335 
    9300   -102661.14    -93037.19    233.70512    20724    226634.47    4.5264256    182.66166   -344.00274    174.92035    435.35468    23.498416    22.153592    0.3602589    435.71494    29.530007   -1927.6546 
    9400   -102676.36    -93013.35    234.65354    20724    226701.01   -6.5032669   -100.56531   -159.96345    241.01896    435.45042    23.499282    22.154409    0.3123903    435.76281    13.283457   -1934.3472 
    9500   -102709.92   -93013.278    235.47028    20724    226824.19     4.836414   -28.670826   -71.779321    114.95939    435.54953     23.50299    22.157905   0.26283516    435.81236    45.641212   -1965.7671 
    9600   -102571.72    -93040.14    231.46205    20724    226778.72     37.95334   -39.968912    122.51715     31.31178    435.55638     23.50045     22.15551   0.25940862    435.81579    32.430574   -1929.4579 
    9700   -102617.67   -92950.323    234.75897    20724    226765.73   -61.567044    -103.8939    108.44264   -189.24987    435.78591    23.493587     22.14904   0.14464498    435.93056    32.318362   -2015.7032 
    9800   -102573.13   -92992.992    232.64108    20724    226637.31    1.4311553   -76.606151    49.301039    31.598578    435.34764    23.498753     22.15391   0.36378024    435.71142    39.820007   -1985.5424 
    9900   -102562.33   -92963.415    233.09704    20724    226675.41   -91.904392   -30.362221   -54.091544   -191.25941    435.47914     23.49718    22.152427   0.29802842    435.77717    39.656046   -2010.7838 
   10000   -102539.63    -92934.03    233.25949    20724    226863.58    36.443549    7.5955099   -100.19901    201.93415    435.59893    23.503698    22.158572   0.23813327    435.83707    24.139624     -2027.95 
   10100   -102655.22   -92974.412    235.08587    20724    226836.73   -73.800136   -179.80223   -23.541493    -18.05669    435.60146    23.502239    22.157197    0.2368692    435.83833    48.603434   -2009.4736 
   10200   -102550.81   -92908.091    234.16099    20724    226815.45    -12.48057   -127.56834    336.96385   -246.83722     435.5012    23.503842    22.158708   0.28700058     435.7882    21.579038   -2051.1871 
   10300   -102581.52   -92927.048    234.44623    20724     226671.9    51.526583    153.63581   -78.275812    79.219756    435.48993    23.496707    22.151981   0.29263736    435.78256    13.031372   -2034.3201 
   10400   -102500.54   -92894.165     233.2783    20724     226753.1    10.738171    -6.561863   -170.12668    208.90306    435.21293    23.508393    22.162998   0.43113743    435.64406   -5.9638033   -2042.8184 
   10500   -102525.94   -92831.941    235.40617    20724    226831.36   -70.784734   -180.00528   -245.29548    212.94656    435.47538    23.505363    22.160141   0.29990829    435.77529  -0.10202476   -2106.7502 
   10600    -102529.3   -92823.612    235.69004    20724    226745.19   -9.1577721    79.723614   -186.91283    79.715903    435.31088    23.505338    22.160118   0.38216212    435.69304   -15.115611   -2106.6318 
   10700   -102460.78     -92782.1    235.03408    20724    226870.88     11.55297   -46.133676    16.624503    64.168084    435.53249    23.505869    22.160619   0.27135451    435.80385   -14.520967    -2148.664 
   10800   -102439.55   -92840.192    233.10788    20724     226734.8    34.045401    127.59688   -15.257762   -10.202916    435.39151    23.502623    22.157558   0.34184674    435.73335  0.028763374   -2110.8457 
   10900   -102522.56   -92840.495    235.11622    20724    226754.23   -28.874769    55.762784   -26.361149   -116.02594    435.16053    23.509866    22.164387    0.4573364    435.61786   -8.0918715   -2100.4536 
   11000   -102450.81   -92815.438    233.98237    20724    226903.16    42.278493    106.05442    50.094234   -29.313181    435.29841    23.513861    22.168153   0.38839524     435.6868   0.12105987   -2134.1129 
   11100   -102493.73   -92808.832    235.18518    20724    226735.33   -13.816235   -94.277561   -146.89904     199.7279    435.20776    23.507611    22.162261   0.43371851    435.64148   -8.7004323    -2134.066 
   11200   -102385.85   -92765.327    233.62178    20724    226696.83   -67.369133   -53.098175   -111.94656   -37.062661    435.41704    23.499966    22.155053   0.32907838    435.74612   -9.9075642   -2174.0277 
   11300   -102460.14   -92792.173    234.77404    20724    226714.04    12.947965    105.70224    78.369138   -145.22748    435.04066    23.511021    22.165476   0.51727082    435.55793   -18.356595   -2143.5293 
   11400   -102453.48   -92806.369    234.26761    20724    226734.27     32.42531    265.35637     79.70303   -247.78347    435.04319    23.512002    22.166401   0.51600399     435.5592    14.101987   -2163.8935 
   11500   -102426.09   -92753.081     234.8964    20724    226638.83    -19.43163    176.47001   -198.37274   -36.392151    435.01728    23.507753    22.162395   0.52896246    435.54624     12.66894   -2217.3553 
   11600   -102430.07   -92755.534    234.93341    20724    226605.09   -44.911594   -101.11274   -379.12389    345.50184    435.49195    23.493189    22.148665   0.29162551    435.78357    20.653472   -2224.5132 
   11700   -102443.27    -92744.41     235.5242    20724    226684.85    30.902446    39.558076   -16.228046    69.377307    435.24046    23.504111    22.158962   0.41737177    435.65783    9.9706718   -2225.1509 
   11800    -102436.2    -92740.12     235.4567    20724    226560.72    89.122075     12.24235    317.63028   -62.506407     434.9371    23.505868    22.160618   0.56905085    435.50615   -10.038496   -2219.7141 
   11900   -102379.03   -92707.753    234.85435    20724    226610.79   -20.387787    123.03224    15.271899    -199.4675    435.19323    23.501547    22.156544   0.44098398    435.63422    11.823508   -2267.8632 
   12000   -102445.44   -92694.322    236.79318    20724    226516.36   -33.658752   -51.136068    82.267843   -132.10803    435.15484    23.497686    22.152904   0.46017774    435.61502   -18.823323   -2254.9932 
   12100      -102322   -92710.509     233.4025    20724     226621.6   -17.241385   -205.12138   -34.625634    188.02286    435.02592    23.506626    22.161332   0.52464082    435.55056    9.3063512   -2263.5748 
   12200    -102470.8   -92678.016    237.80504    20724    226558.22    15.322675    173.88536    44.239678   -172.15702    434.68038    23.512679    22.167039   0.69741171    435.37779   -17.548199   -2275.5682 
   12300   -102391.06   -92676.328    235.90965    20724    226577.24   -15.428736    7.3206091    180.83073   -234.43755    434.85296    23.508999     22.16357   0.61111937    435.46408   -4.7780685   -2290.2911 
   12400   -102453.64   -92688.345    237.13744    20724    226367.44   -11.640886   -127.40817    68.156094    24.329415    434.67468    23.502931    22.157849   0.70025831    435.37494    2.6682557   -2292.1461 
   12500   -102430.58   -92664.861    237.14773    20724    226529.29   -26.939167   -53.047059   -269.53844      241.768    434.75295    23.509215    22.163773   0.66112486    435.41408    16.077262    -2323.363 
   12600   -102252.03    -92603.56    234.30049    20724     226538.6   -5.6825441   -144.23532    21.719895     105.4678    434.74323    23.509961    22.164476   0.66598459    435.40922 0.0026867373   -2368.4907 
   12700   -102328.32   -92573.158    236.89144    20724    226410.04    41.123904    119.98961   -65.698979    69.081082    434.60273    23.507088    22.161768   0.73623252    435.33897   -7.7916727   -2398.7766 
   12800    -102327.8    -92567.08    237.02639    20724    226620.84   -13.481206    27.662064   -211.10973    143.00405    434.69195    23.515615    22.169807    0.6916258    435.38357    -1.234803   -2405.1764 
   12900    -102237.8   -92568.133     234.8152    20724    226373.73     9.694298   -53.347073   -9.3446404    91.774608    434.71031    23.502294    22.157249   0.68244626    435.39275    26.723817   -2440.4065 
   13000    -102283.9    -92582.06    235.59657    20724     226536.7    20.259917    5.4544534    78.029474   -22.704176    435.04513    23.501704    22.156692    0.5150369    435.56016    16.138958   -2412.4075 
   13100   -102167.54   -92496.687    234.84406    20724    226556.27    50.857449    88.706912   -111.96847     175.8339    434.94997    23.505289    22.160072   0.56261425    435.51259    2.4108142   -2485.3648 
   13200   -102254.79    -92511.27    236.60872    20724    226485.63     8.325107    45.110842    75.268271   -95.403792    435.09272    23.497769    22.152982   0.49124025    435.58396    27.122947   -2497.6909 
   13300   -102148.92   -92463.799    235.19064    20724    226611.33    58.857087    173.77245    15.813118   -13.014302    435.32034    23.498143    22.153335   0.37742797    435.69777    32.074444    -2548.014 
   13400   -102299.46   -92522.345    237.42458    20724    226573.48    3.4735401   -131.72632    166.83845   -24.691511    435.26622    23.497641    22.152862    0.4044917    435.67071    32.383579   -2490.7523 
   13500   -102262.27   -92505.802    236.92316    20724    226614.74    94.770277    118.27451    170.66859   -4.6322664    435.11826    23.503776    22.158646   0.47846899    435.59673    41.173731     -2520.99 
   13600   -102139.81   -92502.177    234.03739    20724    226545.33    50.782776    343.51214   -12.655961   -178.50785    435.08393    23.501103    22.156126   0.49563728    435.57956    56.645038   -2541.0193 
   13700   -102256.05   -92436.308    238.45957    20724    226722.94   -49.656473   -214.70357    99.965683   -34.231535    435.26092    23.505533    22.160302   0.40714154    435.66806    34.996829   -2577.5729 
   13800   -102189.96   -92436.238    236.85652    20724     226597.7    97.962767    177.46069    207.61848   -91.190868     435.2443    23.499489    22.154604   0.41544854    435.65975    53.841027    -2607.841 
   13900   -102096.85   -92429.704    234.75404    20724     226539.4    18.821119    103.12908   -279.01046    232.34473     434.9225    23.505157    22.159947   0.57635177    435.49885    40.378209   -2598.5234 
   14000   -102213.26   -92370.043    239.02974    20724    226550.91    -91.91843   -86.042831   -144.49994   -45.212522    434.97282    23.504394    22.159228   0.55118909    435.52401    61.423162   -2678.2817 
   14100   -102180.41   -92371.432    238.19831    20724    226529.28    68.281612   -75.469545    164.95767    115.35672    434.97436     23.50323    22.158131   0.55042214    435.52478    47.144236   -2669.4198 
   14200   -102134.14     -92361.7    237.31095    20724    226634.26   -80.483392    50.280011   -466.70854    174.97835    434.90261    23.510615    22.165093   0.58629442    435.48891    50.878692   -2673.3412 
   14300    -102092.9    -92369.93     236.1096    20724    226538.02   -1.5249993   -27.090571   -85.853012    108.36859    434.70129    23.511065    22.165517   0.68695717    435.38824    31.909766     -2653.48 
   14400   -102136.73   -92351.229    237.62805    20724    226626.47   -56.344802   -93.625606   -122.51886    47.110057    434.90291    23.510203    22.164705   0.58614483    435.48906    28.676199   -2665.1843 
   14500   -102065.45   -92321.798      236.612    20724    226567.64    3.6310375    166.01322    82.524206   -237.64431    434.66382    23.513615    22.167921   0.70568783    435.36951    10.673582   -2681.9447 
   14600   -102145.43   -92349.471    237.88215    20724     226590.1   -34.608497   -43.262311    -16.25083   -44.312351    434.83889    23.510046    22.164557   0.61815346    435.45705    11.321316   -2654.1768 
   14700   -102145.18   -92332.545    238.28704    20724     226559.8    51.029837    20.978506    379.95862   -247.84761    434.70127    23.512196    22.166583   0.68696334    435.38824   -14.225611   -2650.9625 
   14800    -102088.4    -92343.24    236.64849    20724    226526.85    35.846718    59.638426    351.39371   -303.49198    434.66238    23.511537    22.165963   0.70640898    435.36879     17.82685   -2672.5753 
   14900   -102098.94   -92328.673    237.25819    20724    226374.61   -53.788679    233.80147   -65.776617   -329.39089    434.64195    23.504188    22.159034   0.71662633    435.35857    4.6126753   -2675.3901 
   15000   -102024.23   -92282.127    236.57428    20724    226524.66    7.4773178   -175.27517    3.9250569    193.78207    434.84633    23.506451    22.161167   0.61443732    435.46076    0.5986335   -2715.6385 
   15100   -102006.23   -92236.264    237.25099    20724    226390.88    78.294556    114.73323    59.286269    60.864171    434.71215    23.503135    22.158041    0.6815256    435.39367    10.784475   -2780.8207 
   15200   -101994.12   -92206.799    237.67236    20724    226386.61   -18.883295    14.207318   -76.447298    5.5900952    434.74398    23.502053    22.157021   0.66560922    435.40959   -6.4032314   -2788.6988 
   15300   -102082.65   -92184.104    240.37334    20724    226448.68    85.830569    30.129529    107.44211    119.92007    434.65432    23.507699    22.162344   0.71044213    435.36476   -19.626336   -2805.3821 
   15400   -101978.89   -92140.826    238.90458    20724     226439.4    12.256678    13.345664   0.80413808    22.620233    434.78954    23.503561    22.158443   0.64283241    435.43237   -16.181229    -2846.589 
   15500   -102035.22   -92156.526    239.89124    20724    226481.95   -37.490253   -130.68084   -169.05524    187.26532    434.40443    23.516186    22.170345   0.83538346    435.23982    -7.776162   -2837.7671 
   15600   -101967.65   -92146.238    238.50027    20724    226515.95     69.81444   -48.911395     172.8491    85.505619    434.37411    23.518772    22.172783   0.85054567    435.22465   -15.246287   -2846.9528 
   15700   -102006.64   -92115.745    240.18754    20724    226530.28   -58.399912    173.53393   -344.39469   -4.3389772    434.48832    23.516425     22.17057   0.79344008    435.28176   -17.128724   -2869.8468 
   15800   -102045.83   -92080.721    241.98972    20724    226606.48   -71.098833   -48.033566    110.35361   -275.61654    434.79561    23.512066    22.166461   0.63979409    435.43541   -13.872974   -2904.8534 
   15900   -101930.34   -92076.567    239.28593    20724    226446.65   -67.483954   -266.99682      32.4147    32.130254    434.54235    23.510622    22.165099   0.76642523    435.30877   -31.624872   -2896.3954 
   16000   -101963.78   -92052.375    240.68546    20724    226711.59    6.1359237    8.7850597    232.73636   -223.11365     435.0748    23.509972    22.164487   0.50020015      435.575   -38.988624   -2912.3597 
   16100   -101852.15   -92038.765    238.30528    20724    226522.92   -9.7960611   -92.388245   -136.46831    199.46837    434.77522    23.508282    22.162894   0.64999075    435.42521   -48.281582   -2919.3802 
   16200   -101908.33   -92030.817    239.86253    20724    226659.59    40.311171    9.8754724   -81.277807    192.33585    434.88742     23.51234    22.166719    0.5938916    435.48131   -55.772123   -2922.6094 
   16300   -101925.87   -92051.041     239.7974    20724    226555.44   -78.895175    -22.84156   -92.095128   -121.74884    434.88153    23.507096    22.161776   0.59683748    435.47836   -38.538749   -2917.2227 
   16400   -101965.58   -92054.713     240.6724    20724    226556.03    -5.528753     30.38992    126.77264   -173.74882    434.98719    23.504271    22.159112   0.54400393     435.5312   -31.618557   -2926.0315 
   16500   -101854.63   -92084.362     237.2581    20724    226496.97    44.626349    107.66131    125.38093   -99.163187    434.63689    23.510676    22.165151   0.71915404    435.35605   -38.633585   -2893.8717 
   16600   -101969.61    -92067.44    240.46124    20724    226234.11   -3.1731194     111.1474   -199.66304     78.99628    434.64391     23.49684    22.152106   0.71564501    435.35955   -29.137066   -2927.0302 
   16700   -101908.61   -92055.959    239.25872    20724       226308    23.282319    90.868085   -104.04625    83.025125    434.40932    23.507021    22.161705   0.83294052    435.24226   -30.524289    -2937.963 
   16800   -101888.23   -92012.096    239.82899    20724    226238.64   -29.917441   -106.65643   -87.086654    103.99076    434.20092    23.509058    22.163626   0.93714052    435.13806   -48.233546   -2964.8511 
   16900   -101832.19   -92001.771    238.71891    20724    226323.53    31.391731    43.009688   -25.375433    76.540937    434.63597    23.501698    22.156686   0.71961414    435.35559   -46.578388   -2975.8506 
   17000   -101977.31   -92046.555    241.15549    20724    226376.51   -69.934025    -255.5708   -196.49128       242.26    434.68239    23.503193    22.158096   0.69640621    435.37879   -23.089055   -2951.5237 
   17100   -101849.21   -92004.181    239.07371    20724    226101.31   -38.551265   -211.00492    117.19233   -21.841205    434.38271    23.497004    22.152261   0.84624604    435.22895   -45.118758   -2981.7428 
   17200    -101869.9   -91979.423    240.17736    20724    226245.25   -23.006911   -13.498805    126.01653   -181.53846    434.44161    23.502888    22.157809   0.81679528     435.2584   -70.579182   -2979.4844 
   17300   -101842.96    -92003.44    238.93981    20724    226182.97   -32.467817   -32.012896   -82.186561    16.796004    434.70726    23.492472    22.147988   0.68396906    435.39123   -26.614464   -3003.7868 
   17400   -101759.52    -91927.78    238.75091    20724    226194.96   -23.771108    -95.54347   -47.726906    71.957051    434.63217    23.495124    22.150489   0.72151669    435.35368   -43.674377   -3060.6308 
   17500   -101825.22   -91979.275    239.09598    20724    226087.42    38.805781    94.915817   -61.676537    83.178062    434.55664    23.491579    22.147147   0.75928117    435.31592   -33.647593   -3027.5984 
   17600   -101843.79   -91973.324     239.6915    20724    226167.07   -91.753993   -132.30768    90.986176   -233.94047    434.64537    23.493319    22.148787   0.71491623    435.36028   -35.399458    -3022.674 
   17700   -101835.18   -91972.523    239.50165    20724    226044.31    93.575484    310.64539   -47.948061     18.02912    434.67015    23.486273    22.142144    0.7025272    435.37267   -30.145203   -3043.2182 
   17800   -101843.19   -91933.703    240.63895    20724    226258.42   -98.294885   -86.361873   -179.38639   -29.136395     434.4603    23.503067    22.157977   0.80744992    435.26775   -41.849009   -3056.3755 
   17900   -101803.96   -91934.991    239.65494    20724    226108.93    90.894513    71.481057    61.991953    139.21053    434.52768     23.49348    22.148938   0.77375886    435.30144   -39.136949   -3070.8846 
   18000   -101860.64   -91954.426     240.5594    20724    226151.65    19.876744   -10.468263    173.16996   -103.07147    434.50022    23.496441    22.151731   0.78749117    435.28771   -33.552722   -3054.3027 
   18100   -101868.81   -91981.762    240.09405    20724    226293.75   -12.699324   -132.04253    196.02316    -102.0786    434.48023    23.504363    22.159199   0.79748641    435.27771    -30.43887   -3024.9825 
   18200   -101772.88   -91920.568    239.25052    20724    226064.71    26.440281   -95.980789    245.85359   -70.551952    434.37197    23.495393    22.150742   0.85161727    435.22358   -31.495066   -3094.0523 
   18300    -101778.9   -91921.312    239.37863    20724    226130.05    40.114271    99.236025   -26.790068    47.896857    434.03334    23.507953    22.162583    1.0209296    435.05427    -37.98279   -3088.2098 
   18400   -101811.65   -91917.691    240.26201    20724    226221.62    7.7611768   -26.306048   -93.639669    143.22925    434.37015    23.503595    22.158474   0.85252696    435.22267   -27.129123   -3099.4285 
   18500   -101857.31   -91912.326    241.50102    20724    226361.99    28.388692    78.516386   -142.55307    149.20276    434.32039    23.512232    22.166618   0.87740352     435.1978   -45.918967    -3085.934 
   18600   -101725.87   -91880.653    239.07829    20724    226151.29    13.124883   -16.459004   -102.59301    158.42667    434.17591    23.505197    22.159985   0.94964478    435.12556   -45.580639   -3121.9064 
   18700   -101797.39   -91876.974    240.90448    20724    226294.37    73.380316    116.78481    101.33708    2.0190623    434.47406    23.504562    22.159386   0.80056933    435.27463   -35.459681   -3136.0632 
   18800   -101776.93   -91872.719    240.51074    20724    226115.33   -24.558598    24.466368   -155.46039    57.318228    434.27888    23.500541    22.155596   0.89816168    435.17704   -41.534282    -3136.653 
   18900   -101732.38   -91864.015    239.64051    20724    226403.57    18.692378    62.572308   -76.881105    70.385931    434.49446    23.509681    22.164212   0.79037109    435.28483   -45.417152   -3136.2726 
   19000   -101779.69   -91875.707    240.50525    20724    226214.57    87.504039    53.572318    232.04324   -23.103444    434.54629    23.498464    22.153638   0.76445606    435.31074   -52.813782    -3130.227 
   19100   -101731.51   -91871.252    239.44358    20724    226229.15   -35.238561   -35.807449   -21.629689   -48.278544    434.44706    23.501905    22.156882   0.81407114    435.26113   -56.214381   -3123.9655 
   19200   -101789.27   -91841.241    241.57488    20724    226331.37    18.966096    32.207842   -96.247671    120.93812    434.70336    23.500283    22.155353   0.68592174    435.38928   -59.687927    -3150.766 
   19300   -101722.54   -91836.153    240.07815    20724    226108.43    3.6942948    -45.18905   -25.624528    81.896462     434.3975    23.496974    22.152233   0.83885096    435.23635     -55.3733    -3166.957 
   19400   -101722.32   -91853.086     239.6614    20724     226209.9    28.773013   -9.1491579    269.03541   -173.56722    434.55235    23.498058    22.153255   0.76142587    435.31377   -49.289818   -3156.8115 
   19500   -101787.87   -91805.026    242.42032    20724    226275.88   -3.2989915    11.343413     90.55917   -111.79956    434.76883    23.495633    22.150968   0.65318591    435.42201   -39.336198   -3210.0937 
   19600   -101651.13   -91820.013    238.73598    20724    226314.71   -25.650372   -251.37464   -188.28181    362.70533    434.55079    23.503543    22.158426   0.76220584    435.31299   -31.529196    -3201.235 
   19700   -101756.01   -91844.074    240.69832    20724    226245.52    6.8036888   -33.718489    54.238314  -0.10875866    434.61165    23.498305    22.153487   0.73177508    435.34342   -34.964158   -3180.0135 
   19800   -101717.34   -91833.278    240.02151    20724    226228.83   -67.926152   -75.753614    -149.6032    21.578354    434.35989    23.504247    22.159089   0.85765479    435.21755   -47.056699   -3175.6799 
   19900   -101809.45   -91799.496    243.07863    20724    226334.68   -82.956387   -14.090777   -52.820634   -181.95775    434.56891     23.50409    22.158942   0.75314298    435.32206   -49.502425   -3205.1925 
   20000   -101654.99   -91768.197    240.08789    20724    226182.64    -10.15352   -73.148977    108.11469   -65.426275    434.46481    23.499009    22.154151   0.80519429    435.27001   -58.759364   -3235.7539 
   20100   -101700.76   -91763.581    241.31136    20724    226141.05   -32.284296   -140.90741    38.038909    6.0156141    434.17727    23.504628    22.159448   0.94896426    435.12624   -60.284075   -3240.0495 
   20200   -101694.06   -91719.488    242.21953    20724    226164.34   -29.247548   -32.428255   -163.27502    107.96063    434.31025    23.502239    22.157196   0.88247322    435.19273    -92.00612   -3253.5278 
   20300   -101693.41   -91714.936    242.31417    20724    226118.32    16.932529    179.07676   -32.673813   -95.605356    434.47563    23.495375    22.150725   0.79978742    435.27541   -81.846465   -3271.7378 
   20400    -101733.4   -91714.866    243.28693    20724    226242.64   -45.481269    97.221209   -153.35863   -80.306384    434.38436    23.504302    22.159141   0.84542177    435.22978   -57.478708   -3293.0329 
   20500   -101704.43   -91683.408    243.34751    20724    226306.15    12.712578   -9.9026643    32.597259    15.443139    434.26702    23.510776    22.165245   0.90409082    435.17111   -67.163988   -3315.2073 
   20600   -101661.98   -91700.261    241.90741    20724    226400.15    55.094932    12.580821    75.987686    76.716288    434.40317    23.511973    22.166374   0.83601663    435.23918   -26.823843   -3339.1658 
   20700   -101599.83   -91660.842    241.35537    20724    226498.14   0.40044451    36.867418    34.345977   -70.012061    434.53205    23.513573    22.167882   0.77157521    435.30362   -40.451283   -3357.5714 
   20800   -101658.97   -91697.274     241.9068    20724    226196.66    5.4708612   -12.050644    97.015305   -68.552077     434.2786    23.504775    22.159587   0.89829943     435.1769   -49.562111    -3326.081 
   20900   -101648.04   -91674.826     242.1864    20724    226341.75    -32.37751    115.68034   -154.26611   -58.546763    434.38966    23.509306    22.163859    0.8427706    435.23243   -44.537189   -3347.1196 
   21000    -101678.3   -91684.162    242.69458    20724    226162.85    1.9230125    10.830431   -282.98662    277.92523    434.40113    23.499703    22.154806   0.83703641    435.23816   -28.829968   -3364.4726 
   21100   -101648.46   -91640.494    243.03033    20724    226321.11   -18.000456    22.751883   -42.194389   -34.558862    434.74808    23.498541    22.153711   0.66356004    435.41164   -35.806208   -3393.0891 
   21200   -101634.22   -91655.048    242.33125    20724    226210.15   -111.80428   -44.253716   -224.04784   -67.111287    434.50579     23.49933    22.154454   0.78470652    435.29049   -38.390677   -3376.0779 
   21300   -101727.12   -91678.942    244.00701    20724    226540.55   -20.775248    -188.7796    27.555773    98.898078    434.79084    23.508775    22.163358   0.64218074    435.43302   -37.813138   -3351.4986 
   21400    -101602.8   -91682.026      240.913    20724    226450.97    15.315119    41.537798    20.069576   -15.662018    434.81638    23.503436    22.158325   0.62941066    435.44579   -44.901646   -3344.0171 
   21500   -101683.93   -91662.306    243.36213    20724    226535.21     47.30583    154.32555   -88.315329     75.90727    434.83809    23.507221    22.161893   0.61855274    435.45665    -26.48224   -3382.8163 
   21600   -101659.73   -91631.424    243.52433    20724    226562.58   -22.383109   -73.999712   -31.485684     38.33607    435.00016    23.504261    22.159103   0.53752119    435.53768   -25.105913   -3412.3832 
   21700   -101577.64   -91613.316     241.9707    20724     226689.9   -63.732042   -202.14031    -103.7094    114.65359    434.98085    23.511386     22.16582   0.54717285    435.52803   -21.114095    -3427.282 
   21800   -101662.36   -91655.686    242.99909    20724    226412.14    59.740368    29.203345    100.50443    49.513326     434.5613    23.508317    22.162927   0.75695162    435.31825   -25.921131   -3396.0728 
   21900   -101593.41   -91641.556    241.66771    20724    226372.98    -5.942169   -4.6938446    193.95127   -207.08393    434.64517    23.504016    22.158872   0.71501651    435.36018    -44.47025    -3389.471 
   22000   -101558.21   -91660.529     240.3522    20724    226300.87   -55.506654   -215.74302     88.29801   -39.074956    434.36466     23.50786    22.162496   0.85527221    435.21993   -5.2566685   -3409.8458 
   22100   -101644.82   -91644.444    242.84615    20724     226345.8   -1.7323416   0.51643162   -115.42871    109.71525    434.64423     23.50263    22.157566   0.71548644    435.35971   -52.574016   -3384.2298 
   22200   -101682.55   -91617.431     244.4184    20724    226215.18    12.984596      98.7732    30.426483   -90.245896    434.26042    23.506229    22.160958   0.90738984    435.16781   -39.270231    -3429.917 
   22300   -101615.07   -91590.536    243.43278    20724    226290.16    -56.65192      44.6725   -141.34578   -73.282485    434.21457    23.511365      22.1658   0.93031399    435.14489   -55.198713   -3436.2848 
   22400   -101674.52   -91652.681    243.36725    20724    226256.47   -24.177552   -3.6068456   -81.288927    12.363116     434.4101    23.504324    22.159162   0.83254893    435.24265    -9.734346   -3424.4679 
   22500   -101677.28   -91652.735    243.43308    20724    226345.67   -60.104061   -385.15556   -187.48496    392.32834    434.46749    23.507404    22.162065    0.8038526    435.27135   -14.735663   -3415.4166 
   22600   -101659.73   -91578.506    244.80928    20724    226158.79   -116.21338   -208.29516   -54.165494   -86.179484    434.05732    23.508797    22.163379    1.0089416    435.06626   -28.661529   -3478.8361 
   22700   -101543.62   -91617.003    241.05494    20724    226295.98    171.49126    270.39573    22.725185    221.35286    434.07288    23.515505    22.169703    1.0011595    435.07404   -28.193343   -3451.4889 
   22800   -101544.45   -91567.235    242.28371    20724    226132.18   -26.516593   -109.61315    -167.0314    197.09476    434.03504    23.508017    22.162644    1.0200809    435.05512   -6.3773693    -3519.111 
   22900   -101541.19   -91612.145    241.11382    20724    226226.42    54.167461     72.01061    331.83053   -241.33876    434.14376    23.509971    22.164486   0.96571964    435.10948    -2.230565   -3484.1828 
   23000   -101658.33   -91630.846    243.50442    20724    226246.97   -125.28772   -229.53743   -52.176491   -94.149228    434.44703    23.502831    22.157755   0.81408387    435.26112  -0.12140254   -3457.0088 
   23100   -101587.17   -91632.189    241.74371    20724    226054.17    28.532901     44.30181    6.9348975    34.361995    434.21948     23.49897    22.154114   0.92786113    435.14734   -13.785175   -3457.1893 
   23200   -101585.61   -91598.394    242.52663    20724    226151.31   -34.133096   -66.556036    116.10196   -151.94521     434.5622    23.494748    22.150134   0.75649991     435.3187   -23.463962    -3475.186 
   23300   -101596.27   -91614.266    242.39994    20724    226051.54    48.261337    42.275176   -4.4458912    106.95473    434.35551    23.495153    22.150516   0.85984712    435.21535 0.0001203245   -3492.4601 
   23400   -101676.26   -91645.404    243.58622    20724    226147.98    8.6066881   -74.320054    195.64596   -95.505838    434.15938    23.505472    22.160244   0.95790844    435.11729    7.5650437    -3464.392 
   23500   -101651.47   -91645.955    242.97097    20724    226101.35    57.223787   -32.646597    -169.3267    373.64466    434.53037    23.493013    22.148499   0.77241486    435.30279    6.1518236   -3468.1169 
   23600      -101489   -91570.775    240.85116    20724    226214.86    38.719227    34.021977     98.17276   -16.037056    434.41781    23.501954    22.156928   0.82869523     435.2465   0.90948572   -3532.9144 
   23700   -101463.55   -91533.846    241.12983    20724    226025.68    12.026984    59.129329    115.18655   -138.23493    434.04243    23.502281    22.157236     1.016386    435.05881    4.3106567   -3580.6168 
   23800   -101583.57   -91522.086    244.32997    20724    226097.36   -2.3097315    84.615384   -3.5411933   -88.003385    434.00394     23.50705    22.161732    1.0356318    435.03957    2.0326863   -3588.4334 
   23900   -101451.92   -91479.619    242.16439    20724    226225.06    26.638681   -78.637574   -57.513499    216.06712    434.26177    23.506706    22.161408   0.90671374    435.16849   -17.497344   -3606.4031 
   24000   -101551.67   -91497.307    244.15706    20724    226275.14   -3.1319549   -63.264797    252.40723    -198.5383    434.20925     23.51073    22.165201   0.93297641    435.14222   -4.6917797   -3601.2057 
   24100   -101390.67   -91512.795    239.87139    20724    226213.71    80.256593     165.7151    45.945499    29.109185    434.04434    23.512003    22.166402    1.0154301    435.05977   -3.3545825   -3592.3743 
   24200   -101510.89   -91514.337    242.75334    20724    226149.01   -46.646999    -86.88339   -97.194495    44.136889    433.86722    23.513438    22.167755    1.1039903    434.97121    2.6377489   -3596.2024 
   24300   -101560.24   -91490.316    244.53488    20724    226034.11   -67.166544    105.29269   -98.903741   -207.88859      433.804    23.509177    22.163738    1.1355976     434.9396   -1.3946444   -3619.6464 
   24400   -101467.77   -91496.117    242.14856    20724    225944.25    62.182845    317.61918   -13.155152   -117.91549    433.85197    23.503204    22.158106    1.1116169    434.96358    4.2048199    -3631.167 
   24500   -101423.22    -91476.94    241.53243    20724    225941.52    32.261374    -28.43667    7.6184546    117.60234     434.0033    23.498965    22.154109    1.0359511    435.03925     8.278734   -3652.6264 
   24600   -101476.96   -91503.006    242.20452    20724    225757.92    -18.61751   -96.596477   -142.00731    182.75126    433.87726    23.492827    22.148323    1.0989704    434.97623    5.4534575   -3629.2197 
   24700      -101434   -91442.018    242.64228    20724    226022.91   -42.271795    152.55251   -163.85174   -115.51616    434.02983    23.502478    22.157422    1.0226838    435.05252     7.243219   -3684.3205 
   24800   -101483.19   -91460.022    243.39949    20724    226047.68     93.67774    24.394023    121.47826    135.16094    433.82494    23.509316    22.163868    1.1251301    434.95007   -8.5860709   -3658.1829 
   24900   -101437.26   -91465.989    242.13925    20724    225961.02    22.628603   -58.120454    190.58029   -64.574029    433.89974    23.502782    22.157709    1.0877279    434.98747    12.988924   -3674.0886 
   25000   -101434.89    -91471.28    241.95334    20724    226055.52     43.47181   -29.182252    203.61969    -44.02201    433.78384    23.510837    22.165303    1.1456824    434.92952   -8.9891662   -3645.6822 
   25100   -101517.03   -91449.369    244.47997    20724    226094.95   -11.653238    36.029056    7.5321447   -78.520916    433.88912    23.510034    22.164546    1.0930384    434.98216   -8.9852298   -3664.6304 
   25200    -101519.1    -91458.13    244.31748    20724    226075.94   -42.277619   -18.450921   -200.06781    91.685872    433.97662    23.506676     22.16138    1.0492916    435.02591    8.3237942   -3674.3724 
   25300   -101525.88    -91455.94    244.53543    20724     225991.8    101.46729    160.67403    78.373532    65.354299    433.79136     23.50732    22.161986    1.1419199    434.93328   -2.6871398   -3675.3808 
   25400   -101513.88   -91437.151    244.70032    20724    226201.82   -5.9702369    147.79876    190.57241   -356.28188    433.89916    23.515318    22.169527    1.0880189    434.98718  -0.32909415   -3686.7952 
   25500   -101513.04   -91455.552     244.2331    20724    226054.06   -20.443097   -270.66351    360.01379   -150.67958    433.84758    23.509034    22.163603    1.1138102    434.96139   -15.930518   -3656.2031 
   25600   -101586.19   -91504.762    244.81444    20724    225847.66   -34.429678   -108.77433   -189.15757    194.64287    433.58703    23.505358    22.160137     1.244084    434.83112    1.0365178   -3633.5983 
   25700   -101539.29   -91500.678    243.77465    20724     225878.4   -46.155449   -142.47159    -167.8805    171.88575    433.88733    23.498822    22.153975    1.0939326    434.98127   -16.019081   -3619.6523 
   25800   -101541.19     -91498.4    243.87602    20724    225912.06   -48.210739   -82.244172    194.18753   -256.57558    433.89054    23.500486    22.155543     1.092329    434.98287   -24.935756   -3613.6628 
   25900   -101463.71    -91417.13     243.9681    20724    225920.37    -16.13936   -70.659733    426.05313   -403.81148    433.48229    23.511981    22.166381    1.2964538    434.77875   -42.165822   -3679.2355 
   26000   -101392.53   -91421.882    242.12411    20724    225865.26   -11.328401    99.588685   -65.631574   -67.942313      433.509    23.508389    22.162995    1.2831002     434.7921   -33.499782   -3684.0089 
   26100      -101492   -91394.232    245.21106    20724    225987.49   -93.717898   -65.788059   -192.65774   -22.707894    433.68117    23.510081     22.16459    1.1970149    434.87819   -67.967746   -3672.0305 
   26200   -101426.74    -91376.27    244.06259    20724    225899.94    45.067034   -148.03186   -159.83126    443.06422    433.58387    23.508164    22.162783    1.2456659    434.82953    -73.08196   -3694.9955 
   26300   -101390.78   -91350.317    243.81956    20724    226110.69   -36.429164    12.477926   -74.757768   -47.007651    433.60406     23.51858    22.172602    1.2355685    434.83963   -48.742649   -3736.7084 
   26400   -101424.53   -91355.843    244.50505    20724    225902.42    68.119755   -191.83261    381.09275    15.099125    433.25141    23.517311    22.171406    1.4118936    434.66331   -54.088115   -3739.9074 
   26500   -101425.75    -91331.33    245.12987    20724    225954.34    51.724547   -20.661995    170.07139    5.7642489    433.59595    23.510667    22.165142    1.2396232    434.83558   -63.961045    -3752.456 
   26600   -101309.16   -91297.511    243.11974    20724    225896.87    41.495738    113.07304   -153.22397    164.63814    433.74411    23.503662    22.158538    1.1655435    434.90966   -70.946465   -3780.9632 
   26700   -101347.83   -91276.883    244.55984    20724    226149.03   -6.4386249     107.0663   -252.81947     126.4373    434.03445     23.50891    22.163485     1.020377    435.05482   -65.108642   -3799.2885 
   26800   -101396.11   -91267.928    245.94963    20724    226209.42   -11.523254   -30.880961   -132.68572    128.99692    434.09254    23.510474     22.16496   0.99132769    435.08387   -68.586212   -3806.4175 
   26900   -101371.58   -91218.767    246.54787    20724    226048.51    76.150699    63.691615   -18.147986    182.90847     433.9003    23.507317    22.161984    1.0874511    434.98775   -66.698379   -3867.0726 
   27000   -101309.76   -91165.326    246.34425    20724    226229.64   -11.529971     258.3431   -223.34914   -69.583869    434.06496    23.512272    22.166655     1.005118    435.07008   -75.432794    -3902.681 
   27100   -101250.34   -91139.162    245.53687    20724    226163.11     76.99375    49.254511    120.37803    61.348711    434.39414    23.499906    22.154997     0.840531    435.23467   -78.138329   -3933.3537 
   27200   -101242.43   -91124.827    245.69284    20724    226132.33     49.67255    13.939922   -44.147806    179.22554    434.06311    23.507265    22.161935    1.0060463    435.06915   -82.676069   -3943.7318 
   27300   -101215.44   -91156.393    244.27094    20724    225978.35   -4.0624039    8.3014788   -110.92379      90.4351    434.05234    23.499552    22.154663    1.0114324    435.06377    -94.07384   -3904.8195 
   27400   -101290.24   -91172.313    245.70057    20724    226221.44   -8.4170235   -96.309418   -327.58656    398.64491    434.07864    23.511475    22.165904   0.99827954    435.07692   -98.520387   -3876.5455 
   27500   -101306.78   -91192.314    245.61665    20724     226226.8    9.8615567   -58.319768   -21.960782    109.86522    434.22716    23.507733    22.162376   0.92401947    435.15118   -86.505234   -3871.1686 
   27600   -101333.44   -91142.679    247.46939    20724    226125.03   -65.205553    87.954477    127.67893   -411.25006    433.97245    23.509341    22.163892    1.0513738    435.02383   -75.469929   -3933.3725 
   27700   -101334.85   -91195.965    246.20965    20724    226101.11    55.033836    45.794543    202.35474   -83.047775    433.98465    23.507767    22.162408    1.0452754    435.02992   -72.747199   -3889.3864 
   27800   -101234.73   -91170.265    244.40242    20724    226052.45   -2.4333344    156.26501   -254.60064    91.035626    434.03036       23.504    22.158856    1.0224198    435.05278   -65.265516   -3920.7358 
   27900   -101180.02    -91141.37    243.77558    20724    226210.94    27.414079    1.6451863    44.115232     36.48182    434.01541    23.512642    22.167004    1.0298926    435.04531   -53.688737   -3959.7296 
   28000    -101300.3    -91157.12    246.31402    20724    226319.38   -14.610883    18.359143    96.864989   -159.05678    434.04447     23.51749    22.171575    1.0153649    435.05984   -68.957845   -3925.1436 
   28100   -101225.05   -91154.084    244.56038    20724    226077.72    26.320963   -25.693005      135.164   -30.508099    434.10109    23.503398    22.158289   0.98705538    435.08814   -71.809279   -3934.3595 
   28200   -101150.22   -91131.874    243.28244    20724    226097.05    91.666651     204.7616    -154.3276    224.56596    434.06529    23.505372     22.16015    1.0049545    435.07025    -75.50719    -3955.754 
   28300    -101348.7   -91147.762    247.71656    20724    226188.85   -66.527576   -56.168193   -68.732424   -74.682112    434.01441    23.511521    22.165948    1.0303926    435.04481   -63.229708   -3944.8975 
   28400   -101269.24   -91117.377    246.52469    20724    226139.44   -54.452672   -236.50417    25.962719    47.183438    433.83306    23.513867    22.168159    1.1210716    434.95413   -67.055003   -3974.2829 
   28500   -101159.27    -91084.05    244.66369    20724    225858.72   -15.466385   -65.484137    312.21761   -293.13263    433.77015    23.500971    22.156001    1.1525265    434.92267   -91.555697   -3992.6598 
   28600   -101107.56   -91088.958    243.28864    20724    226180.48    36.405906   -146.07205   -1.9944485    257.28421    433.98025    23.512012     22.16641    1.0474748    435.02773   -57.440528   -4016.3839 
   28700   -101178.71    -91062.37    245.66218    20724    226077.35   -21.424606   -68.475418    49.264396   -45.062795    433.97069     23.50691      22.1616     1.052254    435.02295   -73.949188   -4029.5757 
   28800   -101240.92   -91063.597    247.14301    20724    225992.04   -55.258797   -270.61121   -113.75533    218.59015     433.7515    23.508412    22.163016    1.1618511    434.91335   -72.640372    -4031.104 
   28900   -101176.08   -91105.408    244.55313    20724    226033.18   -1.7967658   -14.686897   -134.88562    144.18222    433.64292    23.513495    22.167808     1.216139    434.85906   -82.245384   -3983.7899 
   29000   -101210.98   -91070.195    246.25575    20724    226106.77  -0.67574829   -143.01806    109.87639    31.114432    433.68588    23.516157    22.170318    1.1946615    434.88054   -78.498908   -4020.7802 
   29100   -101187.12   -91093.924    245.10016    20724    226002.99    38.625985    112.64562    48.131215   -44.898878    433.75483    23.508891    22.163468     1.160187    434.91501    -72.10009   -4010.3139 
   29200   -101315.55   -91060.071    249.04092    20724    226134.54    5.0516535   -65.602344   -86.808558    167.56586    434.07174    23.507146    22.161823    1.0017293    435.07347   -67.637753   -4045.0169 
   29300   -101256.67   -91081.208    247.09784    20724    225902.97   -14.123775   -172.72226    196.61613   -66.265193    433.53321    23.509696    22.164226    1.2709959     434.8042    -69.23581   -4027.8582 
   29400   -101283.95   -91074.233    247.92961    20724    225994.83   -25.754957    178.70474    26.684191    -282.6538    433.39074    23.518339    22.172375    1.3422281    434.73297   -62.812642   -4039.2017 
   29500   -101230.64   -91074.642     246.6252    20724     226029.9    19.992067    32.740422    48.872213   -21.636433    433.59433    23.514641    22.168889    1.2404333    434.83477   -81.992373     -4021.61 
   29600   -101214.17   -91018.275    247.59395    20724    225929.33   -48.919384   -209.50715   -7.3056699    70.054671    433.77967    23.504387    22.159221     1.147765    434.92743   -77.668185   -4083.6593 
   29700   -101118.04    -91038.07    244.77884    20724    225862.09   -6.6999496   -73.027788    169.83477   -116.90684    433.43528    23.510223    22.164724    1.3199594    434.75524    -81.21534   -4064.5715 
   29800   -101104.75   -90995.066    245.50056    20724     226080.1    103.01985    94.013931    168.04653    46.999077     433.5925    23.517302    22.171398    1.2413523    434.83385   -110.79842   -4076.6106 
   29900   -101278.54   -90997.842    249.65328    20724    226123.35   -62.379739   -26.841942    18.385482   -178.68276    433.72639    23.515921    22.170096    1.1744067    434.90079     -88.2772   -4090.3332 
   30000   -101156.17   -91015.046      246.264    20724    226002.16   -13.868135    167.48685    60.714741     -269.806    433.83104    23.506783     22.16148    1.1220777    434.95312    -96.82499    -4070.617 
   30100   -101111.06    -90989.99    245.77705    20724    225998.74    39.993246    104.89263      249.935   -234.84789    433.66885       23.511    22.165456    1.2031766    434.87202   -97.841574    -4100.972 
   30200   -101128.77   -90955.586    247.04242    20724    226285.07   -63.941485   -136.20279   -10.428418   -45.193244    433.94369    23.518438    22.172469    1.0657565    435.00944   -85.376223   -4135.7015 
   30300   -101104.55   -90952.437    246.53077    20724    225949.28    66.114362    122.12225    84.246697   -8.0258647    433.72618    23.506874    22.161566    1.1745076    434.90069   -75.515655   -4164.8434 
   30400   -101184.88   -90939.874    248.78651    20724    226178.15   -152.53134   -226.84845   -231.52623   0.78065123    433.94146    23.512942    22.167287    1.0668718    435.00833   -94.987053   -4142.9439 
   30500   -101182.61   -90938.935    248.75428    20724    226198.65    67.023155   -5.7518798   -55.884659      262.706    434.06413    23.510684    22.165158    1.0055327    435.06967   -99.428642   -4150.1161 
   30600   -101138.93   -90907.701      248.452    20724    226122.94   -69.504568   -126.62435   -6.3429581   -75.546394    434.04221    23.507343    22.162008    1.0164941    435.05871   -102.85435   -4174.1982 
   30700      -101117   -90880.984    248.56833    20724    226296.91    34.703951    158.87707    45.648087   -100.41331     433.9778    23.518129    22.172177    1.0486989     435.0265   -102.11288   -4201.8574 
   30800   -101100.73   -90846.809    249.00302    20724    226085.26    6.8755524   -220.27088    106.33201    134.56553    433.77123    23.512725    22.167083    1.1519868    434.92321   -114.33771   -4229.5113 
   30900   -100947.03    -90852.11     245.1419    20724    225983.29   -20.854789     22.01502   -4.4984624   -80.080926     433.8315    23.505789    22.160543    1.1218491    434.95335   -118.29786   -4224.1161 
   31000   -101136.75   -90875.906    249.17121    20724    225982.52   -31.763471   -36.759559   -282.36202    223.83117    433.79863    23.506639    22.161345     1.138283    434.93692   -105.82993   -4214.5951 
   31100   -101167.66   -90857.595    250.36648    20724    226077.55    -46.93934   -71.234629   -268.55506    198.97167    433.86403     23.50981    22.164334    1.1055854    434.96961   -126.98472   -4210.1546 
   31200   -101047.84   -90842.643    247.81996    20724    226033.22   -11.721743   -148.70587    80.950481    32.590162    433.57081    23.515452    22.169653    1.2521938    434.82301   -109.46789   -4244.6906 
   31300   -101121.12   -90814.889    250.27335    20724    226041.22    4.1709557    47.600416    145.81152   -180.89907    433.73358    23.511455    22.165885    1.1708082    434.90439   -103.18681   -4281.6116 
   31400   -101105.65   -90820.079    249.77175    20724    225908.51    18.759004    73.725395   -138.31299    120.86461    433.50819    23.510662    22.165137    1.2835068    434.79169   -99.272228   -4285.7282 
   31500    -100933.7   -90797.175    246.15227    20724    225704.07    56.793009    148.38821    122.26698   -100.27616    433.29397     23.50583    22.160582    1.3906137    434.68459   -108.82898   -4306.1575 
   31600   -100973.35   -90761.274    247.98697    20724    225810.35    92.864735    -98.82556    80.706432    296.71333    433.54162    23.504648    22.159467    1.2667912    434.80841   -119.49829   -4334.1989 
   31700   -101054.98   -90756.003     250.0972    20724    225802.37   -5.5178997   -73.308017    60.275391   -3.5210735    433.36516    23.509017    22.163587    1.3550207    434.72018   -103.90584   -4351.4418 
   31800   -100965.25   -90753.061    247.98969    20724    225587.11    59.199978    26.532091   -144.74646     295.8143    433.17849    23.502871    22.157792    1.4483574    434.62684   -119.16793   -4349.8955 
   31900   -100968.72   -90801.704    246.89274    20724    225635.96   -81.203803   -29.509464    147.13887   -361.24082     433.1447    23.506332    22.161056    1.4652514    434.60995   -111.79145   -4300.9546 
   32000   -100942.24    -90701.08    248.69334    20724    225774.89    25.207856   -125.18561   -88.700939    289.51012     433.2377    23.511044    22.165498    1.4187508    434.65645   -154.74961   -4358.6281 
   32100   -101014.99   -90774.673    248.67285    20724    225741.66   -46.105497    59.850627   -119.96775   -78.199369    432.77687    23.521827    22.175663    1.6491631    434.42604   -111.69586   -4329.6615 
   32200   -100999.06    -90729.73    249.37726    20724    225787.62   -66.247253    -46.03526   -313.63834    160.93184    433.00104    23.518131    22.172179    1.5370823    434.53812    -127.6423   -4357.1461 
   32300      -100881   -90754.491     245.9091    20724    225501.11    61.336521    64.467033    101.18328     18.35925    432.96616    23.504152       22.159    1.5545196    434.52068   -154.61566   -4319.6294 
   32400   -100962.09   -90744.052    248.13164    20724     225579.7    68.307633    146.97743    125.98913   -68.043667    432.81444    23.512367    22.166745    1.6303791    434.44482   -159.49817   -4328.1574 
   32500   -101078.91   -90737.516    251.12734    20724    225554.37   -53.553366   -29.697483    313.54437   -444.50699    432.87356    23.509441    22.163987     1.600818    434.47438    -144.4444   -4345.5032 
   32600   -101076.83   -90728.537    251.29473    20724    225625.84   -27.328043      10.1712   -157.99533    65.840001    433.04292    23.508568    22.163163    1.5161406    434.55906    -167.8254   -4332.7244 
   32700   -100897.06   -90728.857    246.92153    20724    225596.08   -55.723884   -51.839051    255.80374   -371.13635    432.86503    23.511846    22.166254    1.6050853    434.47011   -155.06431   -4342.9504 
   32800   -101053.18   -90722.965    250.85572    20724    225521.65   -31.238463    132.30143   -101.74373   -124.27309    432.98967    23.504584    22.159407     1.542766    434.53243   -154.22068   -4355.2144 
   32900   -100946.51   -90717.986    248.38636    20724    225491.03    13.917915   -79.310371    98.215387    22.848729    433.01742    23.502235    22.157193    1.5288914    434.54631   -145.20751   -4372.4392 
   33000   -100941.91   -90686.546    249.03808    20724    225639.89   -35.099269   -205.59275   -53.234617    153.52956    433.20244    23.504971    22.159772    1.4363808    434.63882   -155.54528   -4389.3415 
   33100   -101006.83   -90645.561    251.60991    20724    225732.71    2.6632352   -23.764955    207.30224   -175.54758    433.15443    23.511107    22.165557    1.4603839    434.61482   -153.58925   -4432.7202 
   33200    -100856.7   -90638.895    248.12611    20724    225893.87    73.327973  -0.92509292     146.1159    74.793111     433.1429    23.519811    22.173763     1.466152    434.60905   -157.21148   -4434.0872 
   33300   -100957.37   -90681.672    249.53198    20724    225674.79   -23.762098   -129.30385   -260.17719    318.19475    433.01874    23.511774    22.166186    1.5282313    434.54697   -145.99299   -4406.4775 
   33400   -100852.64   -90648.079    247.80438    20724    225799.37   -1.3669659   -90.278634    46.803357     39.37438    433.41337    23.507553    22.162206    1.3309135    434.74429   -146.05278   -4437.3264 
   33500   -100930.02   -90685.404    248.77708    20724     225700.7   -1.6728204   -86.969936    92.362584    -10.41111    433.10625    23.510748    22.165218    1.4844774    434.59072   -149.96176   -4401.1112 
[...]
  491800   -95890.505   -84332.555    280.66975    20724    221114.89   -45.166363    19.226557    181.04459   -335.77023    424.07675    23.517112    22.171218    5.9992272    430.07597    5606.3641   -23659.272 
  491900   -95840.768   -84329.295    279.54111    20724    221114.05     58.53934    -301.4027    162.77111    314.24961    423.72872    23.526723    22.180279     6.173242    429.90196    5626.6368   -23688.007 
  492000   -95836.024   -84326.534    279.49299    20724    221360.09   -25.594603    6.4491841    168.33873   -251.57172    424.18484    23.527149    22.180681    5.9451787    430.13002    5617.8068   -23672.466 
  492100   -95839.681   -84338.832    279.28313    20724    221167.23    74.039804     164.1089    153.56203   -95.551516    424.16265    23.517513    22.171596    5.9562756    430.11892    5630.4797   -23687.709 
  492200   -95881.225   -84293.474    281.39343    20724    221275.16    29.609212    127.35167   -145.18466    106.66062    424.17057    23.523031    22.176798    5.9523164    430.12288     5634.628   -23729.626 
  492300   -95879.104    -84327.25    280.52172    20724    221322.42    10.659339   -88.966309    151.98296   -31.038634    424.01129    23.529961    22.183332     6.031953    430.04325    5622.1861    -23683.95 
  492400   -95820.846   -84299.511    279.78061    20724    221161.77     24.25152   -24.896026     26.79239    70.858196    423.76458    23.528265    22.181733    6.1553086    429.91989    5617.1145   -23715.089 
  492500    -95837.72   -84358.175    278.76581    20724    221054.75    115.11757    286.89011    110.91608   -52.453479    423.94013    23.517702    22.171774    6.0675371    430.00766    5614.6023   -23663.939 
  492600   -95862.528   -84335.873    279.90979    20724    221355.13    71.241818    149.17493   -151.91485    216.46538    424.03611    23.531011    22.184322    6.0195441    430.05566    5610.9389   -23670.652 
  492700   -95946.015   -84391.098    280.59609    20724    221122.02    18.336023   -72.632458   -247.68303    375.32356     423.6633    23.528963    22.182391    6.2059512    429.86925     5621.575   -23635.611 
  492800   -96036.315   -84349.292    283.80413    20724    221523.41   -4.6211799    84.768961   -273.94821    175.31571      423.471    23.555655    22.207556    6.3021025     429.7731    5638.7081   -23681.396 
  492900   -95898.608   -84333.876    280.83445    20724    221222.98   -43.753836   -32.691018    283.56914   -382.13963      423.498    23.538926    22.191784    6.2885983     429.7866    5621.7131    -23689.44 
  493000   -95929.639   -84317.494     281.9858    20724    221274.99   -73.936879    42.461902   -245.38625   -18.886284    424.14229    23.523806    22.177529    5.9664538    430.10875    5621.2405   -23705.807 
  493100   -95913.084   -84303.403    281.92599    20724    221456.44    139.59483    9.4906981    201.34693    207.94685    424.13251    23.533721    22.186876    5.9713462    430.10385       5626.4   -23728.949 
  493200   -96018.212   -84290.429    284.79393    20724     221694.3    1.1420941     131.2952   -147.99218    20.123259    424.32647    23.540973    22.193714    5.8743648    430.20084    5637.5194    -23742.01 
  493300   -95811.623   -84279.381    280.04548    20724    221302.84    70.881749    23.306988    214.88499   -25.546726    424.08451    23.526889    22.180436    5.9953437    430.07986    5637.3987   -23765.012 
  493400    -95984.48   -84324.989    283.13554    20724    221846.03   -64.285524    89.245254   -66.993241   -215.10858    424.59444    23.541595    22.194301    5.7403813    430.33482    5642.8888   -23707.108 
  493500   -95910.763   -84386.868    279.84278    20724    221502.84   -40.305255   -36.792133   -242.09149    157.96786    424.12442    23.536411    22.189412    5.9753923    430.09981     5654.279   -23670.033 
  493600   -95996.109   -84434.024    280.77017    20724    221463.72   -72.373574   -94.784893   -18.759035   -103.57679    424.23592    23.531239    22.184537    5.9196397    430.15556     5671.014   -23644.806 
  493700   -95841.291   -84406.966    277.66771    20724    221342.93    52.161299    133.25638    170.27631   -147.04879    424.56066    23.515822    22.170002    5.7572707    430.31793    5676.5365    -23684.94 
  493800   -95858.928   -84394.758    278.39243    20724    221025.84    44.026929    46.828724    396.53638   -311.28432    423.94715    23.515969    22.170141    6.0640239    430.01118    5660.3664   -23694.555 
  493900   -95826.391   -84367.971    278.25279    20724    221330.74     75.10534    221.96354   -42.008495    45.360976    423.92401    23.532826    22.186033    6.0755957     429.9996    5665.0601   -23717.618 
  494000   -96024.568   -84377.907    282.82399    20724    221494.56    8.3027218     97.09244   -24.042747   -48.141527    424.02052    23.538854    22.191716    6.0273381    430.04786    5678.7642   -23716.384 
  494100   -95884.001    -84361.73    279.80334    20724    221389.54    13.425628    147.40093   -110.56644    3.4423999    424.08551    23.531469    22.184754    5.9948462    430.08035    5689.6632   -23746.054 
  494200   -95977.073   -84358.741    282.13607    20724    221252.14   -4.9492938    38.106674   -169.59733    116.64278    424.27377    23.518947    22.172948    5.9007139    430.17449    5678.7423   -23743.922 
  494300   -95822.974   -84362.625    278.29966    20724    221092.72   -15.067564    18.635787   -274.34107    210.50259    424.18936    23.512811    22.167163    5.9429183    430.13228    5686.5391   -23751.725 
  494400   -95893.157    -84318.57    281.07376    20724    221286.22   -1.0355301   -103.55663    8.3379952    92.112047    424.17801    23.523413    22.177158     5.948597     430.1266     5674.534   -23780.693 
  494500   -95797.168   -84348.791     278.0089    20724    221246.81     101.4653   -127.26667    482.03534   -50.372766    424.08561     23.52388    22.177599    5.9947929    430.08041    5684.9677   -23769.912 
  494600   -95969.659   -84281.418    283.83369    20724    221389.05    72.872314    334.67005   -92.951771   -23.101335    424.47234    23.520719    22.174619     5.801432    430.27377    5644.4599   -23793.248 
  494700    -95790.26   -84300.243     279.0201    20724    221120.68   -40.773281    57.945582   -191.23485     10.96943    424.32579    23.510517    22.165001    5.8747032     430.2005     5659.641   -23794.984 
  494800   -95832.583   -84297.581    280.11249    20724    221241.34    32.262397   -35.731901    3.1537773    129.36531     424.2007    23.520398    22.174316    5.9372483    430.13795     5663.694   -23804.537 
  494900   -95855.432   -84315.741    280.22637    20724    221314.47    28.425604    292.31986    77.589286   -284.63233    424.25553    23.522765    22.176547    5.9098353    430.16536    5678.3951   -23799.361 
  495000   -95804.351   -84268.943    280.12236    20724    221308.21    37.223913   -205.10977    230.02045    86.761052    424.37798    23.519038    22.173034    5.8486089    430.22659    5645.8535   -23815.913 
  495100   -95866.958   -84272.895     281.5467    20724    221366.85   -5.1413516   -136.37839    70.326278    50.628055     424.1825    23.527574    22.181081     5.946352    430.12885    5661.3384   -23824.951 
  495200   -95828.976   -84301.422    279.93165    20724    221466.23    -1.943005    -93.50301    65.881463    21.792533     424.2088    23.532125    22.185372    5.9331992      430.142    5673.9913    -23806.88 
  495300   -95748.404   -84278.214     278.5386    20724    221323.89   -43.831064     -90.8727     77.68017   -118.30066    424.15106    23.526162     22.17975    5.9620704    430.11313    5692.9217   -23853.432 
  495400   -95903.134   -84278.867    282.28018    20724    221352.32   -54.405862    -114.4811   -259.19438    210.45789    424.09794    23.529147    22.182564    5.9886292    430.08657    5687.7377   -23850.231 
  495500   -95895.647   -84295.375     281.6975    20724    221384.51    104.98546    171.73352      203.876    -60.65314    424.18161    23.528536    22.181989    5.9467933    430.12841    5680.4615   -23834.465 
  495600   -95955.952   -84265.034    283.89872    20724    221356.54   -68.454351   -179.10821   -56.919943    30.665096    423.98176    23.532594    22.185815    6.0467193    430.02848    5662.6615   -23840.803 
  495700   -96015.229   -84278.224    285.01788    20724    221660.34   -34.160499   -61.298322   -215.23894    174.05577    424.21369    23.542299    22.194964    5.9307566    430.14444    5682.4122   -23842.196 
  495800   -95849.772   -84294.773    280.59808    20724    221574.44    32.445789    145.31984   -171.15776    123.17529     424.3005    23.535329    22.188393    5.8873507    430.18785    5665.9205    -23814.63 
  495900   -95904.958   -84293.424    281.97099    20724    221383.51    76.155616   -100.08692    220.51556    108.03821    424.44552    23.521167    22.175041    5.8148382    430.26036    5677.1745   -23838.917 
  496000   -95894.514   -84290.335    281.79238    20724    221558.78   -9.9578047   -38.585599    72.469926   -63.757741    424.60299    23.526113    22.179704    5.7361035     430.3391    5659.7575   -23818.745 
  496100   -95944.309   -84296.139    282.86061    20724    221270.48    7.4760731   -199.43682    55.482419    166.38263    424.47668    23.514299    22.168566    5.7992583    430.27594    5676.3363   -23841.622 
  496200   -95996.075   -84339.713    283.05956    20724    221397.59   -68.805818   -71.127976   -105.13161   -30.157868    425.06371    23.504804    22.159615    5.5057454    430.56945     5678.004   -23791.569 
  496300   -95952.933   -84369.424    281.29041    20724    221335.49   -59.342007   -62.744172   -149.08316    33.801315    425.02675     23.50253     22.15747    5.5242239    430.55098    5681.1642   -23769.981 
  496400   -95888.759   -84331.557    280.65159    20724    221150.25    39.849317   -204.62886    260.54975    63.627065    424.56232    23.505539    22.160308    5.7564413    430.31876    5679.8692   -23817.388 
  496500   -95853.443   -84288.103    280.84923    20724    221284.03   -88.554675    14.131464   -61.523898   -218.27159    424.47935    23.514945    22.169175    5.7979253    430.27727    5683.4133   -23856.214 
  496600   -95902.663   -84314.509     281.4032    20724    221405.74   -29.170072     26.28127    181.19818   -294.98967    424.51173    23.520514    22.174425    5.7817347    430.29347    5699.4446    -23847.04 
  496700   -95870.249   -84248.858    282.21033    20724    221443.67    36.102717   -35.502211   -200.91083    344.72119    424.24671    23.529874     22.18325    5.9142456    430.16095    5699.0248   -23913.681 
  496800       -95756    -84258.33    279.20595    20724    221020.04    31.115252    108.50368    -155.6949    140.53698    423.82541    23.519038    22.173034    6.1248943    429.95031    5700.7382   -23921.024 
  496900   -95787.064    -84244.68    280.29175    20724    221074.62    52.674954   -193.17285    150.67014    200.52757    423.63742     23.52716    22.180691    6.2188903    429.85631    5694.6214   -23930.608 
  497000   -95922.739   -84265.702    283.07595    20724    221136.16    93.166509    251.69627     246.7754   -218.97214    423.49472    23.534398    22.187515     6.290241    429.78496    5708.6252   -23926.902 
  497100   -95892.811   -84241.524    282.93633    20724    221256.68   -84.882463   -78.643304   -223.74075    47.736668    423.61467    23.537477    22.190418    6.2302661    429.84493    5685.7355   -23916.881 
  497200   -95896.769   -84206.497    283.88301    20724    221286.81   -121.99648   -422.64251    120.66794   -64.014869    424.23374    23.521899    22.175731    5.9207286    430.15447    5699.5714   -23964.771 
  497300   -95727.957   -84173.479    280.58545    20724    221054.08    40.413549   -5.2457376    -51.08287    177.56925    424.00903    23.515755    22.169939    6.0330853    430.04211    5687.3799   -24001.497 
  497400   -95751.046   -84189.721    280.75171    20724    221412.83   -47.921889    10.030289   -337.48043    183.68447     423.9998    23.535085    22.188163    6.0377014     430.0375    5691.1449   -23975.082 
  497500   -95822.651   -84220.321    281.74746    20724    221297.82   -63.776565   -242.87908   -151.57821    203.12759    423.93441    23.530787    22.184111    6.0703973     430.0048    5683.6403   -23941.932 
  497600   -95757.714   -84194.877    280.78844    20724    220905.61   -12.033125   -119.44956    237.67114   -154.32096    423.32825    23.526751    22.180306    6.3734736    429.70173    5679.0495   -23978.381 
  497700   -95819.111   -84215.187    281.78619    20724    220929.65    70.838404   -48.128086    23.158706    237.48459    423.31841    23.528305     22.18177    6.3783956     429.6968    5688.2654    -23973.89 
  497800   -95845.457   -84261.381    281.30419    20724    221129.93   -29.632795    8.6188488   -385.03239    287.51516    423.84116    23.524446    22.178133    6.1170192    429.95818    5698.6459   -23928.175 
  497900   -95925.878   -84290.555    282.54865    20724    221394.57    -73.44161   -248.35446    162.56149   -134.53187    424.03138    23.533239    22.186422    6.0219103    430.05329    5692.7154   -23886.663 
  498000   -95666.449   -84231.817    277.67515    20724    220996.75    48.165588    244.84207    -181.2904    80.945099    423.50434    23.526711    22.180268    6.2854277    429.78977     5672.643   -23944.046 
  498100   -95864.971   -84211.724    282.98391    20724    221132.71   -16.208866   -15.724342   -132.63004    99.727787    423.78254    23.526221    22.179806    6.1463316    429.92887    5676.1517   -23963.394 
  498200   -95863.441   -84245.054     282.1374    20724    221068.62   -59.157683   -93.603324    -93.53546     9.665734    423.83421    23.521378     22.17524    6.1204939    429.95471    5673.7039   -23928.725 
  498300   -95781.075   -84234.852    280.38499    20724    221106.28     63.70281    247.89186   -204.59561    147.81218    423.90512    23.521414    22.175274    6.0850383    429.99016     5692.815   -23963.139 
  498400   -95794.244   -84249.985     280.3373    20724    220990.46    156.74336    110.35118     224.5334     135.3455    423.61706    23.523247    22.177002    6.2290707    429.84613    5697.9997   -23966.259 
  498500   -95843.372   -84243.483    281.68819    20724    221552.18   -27.814161   -60.820005    144.82415   -167.44663    424.12265     23.53908    22.191929    5.9762756    430.09892    5706.8144   -23956.282 
  498600   -95767.204   -84224.239    280.30586    20724    221253.77   -18.498195   -71.168174    272.38276   -256.70917    423.89537    23.529528    22.182924    6.0899171    429.98528    5701.3856   -23981.089 
  498700    -95883.99   -84229.966    283.00279    20724    221322.12   -45.421445   -84.652331    179.60558   -231.21758    423.90013     23.53303    22.186226    6.0875344    429.98767    5707.4005   -23980.322 
  498800   -95849.618   -84217.417    282.47284    20724     221202.6   -6.3919671    72.770083    74.393621   -166.33961    423.55778    23.536181    22.189196      6.25871    429.81649    5707.0498   -23997.999 
  498900   -95729.735   -84213.851    279.64824    20724    221158.26    68.260121   -6.5631557    200.31323    11.030291    423.59417    23.532811    22.186019    6.2405135    429.83469    5712.9161   -24012.615 
  499000   -95918.516   -84213.902    284.23131    20724    221147.81   -58.171466    36.660618   -143.87948   -67.295534    423.61619    23.531644    22.184918    6.2295065    429.84569    5684.4723   -23980.355 
  499100   -95868.232   -84234.669    282.50592    20724    221418.98    75.573129   -191.74942    171.65213    246.81667    423.82087     23.54038    22.193154    6.1271655    429.94803    5718.2616   -23994.527 
  499200   -95785.049   -84166.011     282.1532    20724    221487.02   -8.1641847   -134.16707    63.267231    46.407282    423.73276    23.546444    22.198872    6.1712224    429.90398    5699.4034   -24038.578 
  499300   -95788.036   -84220.119    280.91179    20724    221395.67    96.595691    78.361097   -2.4169371    213.84291    423.31915    23.553086    22.205134    6.3780248    429.69718    5721.5354   -24017.203 
  499400   -95924.342   -84257.838    283.30583    20724    221551.79    -11.79627    124.97316    64.080044   -224.44201     423.8409    23.546883    22.199285    6.1171517    429.95805    5743.9654   -23995.301 
  499500   -95759.306   -84255.757    279.34871    20724    221554.57     89.35273  -0.39170101    35.874781    232.57511    424.08738    23.540186    22.192972    5.9939094    430.08129    5728.8714   -23985.151 
  499600   -95841.607   -84248.821    281.51571    20724    221460.72   -14.392295    28.816385    -44.10693    -27.88634     424.5488    23.522407     22.17621    5.7632001      430.312     5719.883   -23985.692 
  499700   -95834.225   -84281.861    280.53412    20724    221362.99   -49.947091   -60.476768    325.80094   -415.16544    424.19333    23.527068    22.180604    5.9409343    430.13427    5722.0473   -23956.095 
  499800   -95849.019   -84280.284    280.93167    20724    221551.32    26.445168   -204.60725    43.602184    240.34057    424.40917    23.531088    22.184394     5.833013    430.24219     5736.848   -23972.648 
  499900   -95879.633    -84261.52    282.13074    20724    221486.63   -36.120631   -103.90526   -116.38662    111.92999    424.37502    23.528599    22.182048    5.8500917    430.22511    5736.3174   -23990.668 
  500000   -95928.092   -84258.773    283.37421    20724     221269.1   -56.633045   -1.8748691   -303.46682    135.44255    424.14788    23.523338    22.177088     5.963661    430.11154    5740.7097   -24008.122 
Loop time of 49378.1 on 32 procs for 500000 steps with 20724 atoms

Performance: 1.750 ns/day, 13.716 hours/ns, 10.126 timesteps/s
96.5% CPU use with 32 MPI tasks x no OpenMP threads

MPI task timing breakdown:
Section |  min time  |  avg time  |  max time  |%varavg| %total
---------------------------------------------------------------
Pair    | 5936.2     | 9487.2     | 12113      |2142.0 | 19.21
Bond    | 0.37658    | 0.60897    | 0.71111    |   8.9 |  0.00
Kspace  | 8528.5     | 11163      | 14733      |1984.2 | 22.61
Neigh   | 7606.5     | 9255       | 10785      |1385.7 | 18.74
Comm    | 332.56     | 2500.9     | 7923.1     |5062.9 |  5.06
Output  | 5.9169     | 32.771     | 69.08      | 379.0 |  0.07
Modify  | 12386      | 16896      | 20236      |2075.7 | 34.22
Other   |            | 42.49      |            |       |  0.09

Nlocal:    647.625 ave 701 max 599 min
Histogram: 3 0 3 9 6 1 0 6 3 1
Nghost:    7356.03 ave 7795 max 7010 min
Histogram: 4 6 7 3 1 0 0 2 4 5
Neighs:    238112 ave 274750 max 215481 min
Histogram: 3 8 8 2 0 1 1 6 2 1
FullNghs:  476226 ave 547563 max 429028 min
Histogram: 3 7 9 2 0 1 1 5 3 1

Total # of neighbors = 15239228
Ave neighs/atom = 735.342
Ave special neighs/atom = 2
Neighbor list builds = 500000
Dangerous builds not checked
write_data production.R1
PPPM initialization ...
  extracting TIP4P info from pair style
WARNING: Using 12-bit tables for long-range coulomb (../kspace.cpp:316)
  G vector (1/distance) = 0.345876
  grid = 400 48 48
  stencil order = 5
  estimated absolute RMS force accuracy = 0.000402612
  estimated relative force accuracy = 1.21246e-06
  using double precision FFTs
  3d grid and FFT values/proc = 67260 38400
write_restart restartproduction.R1
PPPM initialization ...
  extracting TIP4P info from pair style
WARNING: Using 12-bit tables for long-range coulomb (../kspace.cpp:316)
  G vector (1/distance) = 0.345876
  grid = 400 48 48
  stencil order = 5
  estimated absolute RMS force accuracy = 0.000402612
  estimated relative force accuracy = 1.21246e-06
  using double precision FFTs
  3d grid and FFT values/proc = 67260 38400
Total wall time: 13:42:58
