LAMMPS (30 Jul 2016)
# Sets up LAMMPS simulation for transient melting of ice: TIP4P/Ice
# Ensure cold thermostats do not move
# Thinbox: 16x1x1
# Defects
# Order param l=2

#### setting MD parameters ####
units real
boundary p p p
atom_style full

# read ice box in restart file
#read_data ice-ih-restart.data
read_restart restart.state
  orthogonal box = (0.356386 0.0192311 0.0181305) to (435.719 23.512 22.1664)
  32 by 1 by 1 MPI processor grid
  20736 atoms
  13824 bonds
  6912 angles
  2 = max # of 1-2 neighbors
  1 = max # of 1-3 neighbors
  1 = max # of 1-4 neighbors
  2 = max # of special neighbors

#replicate 16 boxes, 16x1x1


#### force field definition ####
pair_style      lj/cut/tip4p/long 2 1 1 1 0.1577 10.0
pair_modify	tail yes

kspace_style	pppm/tip4p 1.0e-6

bond_style	harmonic
angle_style	harmonic
dihedral_style	none
improper_style	none

bond_coeff	1 450.0 0.9572
angle_coeff	1 55.0 104.52


# reset pair coeff
pair_coeff	* * 0.0 0.0

#OO
pair_coeff	2 2 0.21085 3.1668
#OH
pair_coeff	* 1 0.0000 0.0000

neighbor        2.0 bin
neigh_modify    every 1 delay 1 check no

timestep	2.0
fix		constraints all shake 0.000001 20 0 b 1 a 1
  0 = # of size 2 clusters
  0 = # of size 3 clusters
  0 = # of size 4 clusters
  6912 = # of frozen angles

group water type 1 2
20736 atoms in group water

#*********** SIMULATION PARAMETER TO ADJUST ****************
#Box dimensions
variable lx equal lx
variable ly equal ly
variable lz equal lz

### Temperature of the hot and cold regions ####
variable thi equal 375
variable tlo equal 215
variable runpressure equal 0.986923
# Configuration equilibrated in density and temperature

# Define dx here

variable lx equal lx
variable ly equal ly
variable lz equal lz

variable xlo equal xlo
variable xhi equal xhi


variable dx equal 2.0

### ADD IN DEFECTS AT THE CENTRE OF THE HOT THERMOSTAT ###
variable x1 equal ${lx}/4.0
variable x1 equal 435.362428144728/4.0
variable y1 equal ${ly}/2.0
variable y1 equal 23.4927378790615/2.0
variable z1 equal ${lz}/2.0
variable z1 equal 22.1482390816457/2.0

region kill1 sphere ${x1} ${y1} ${z1} 3
region kill1 sphere 108.840607036182 ${y1} ${z1} 3
region kill1 sphere 108.840607036182 11.7463689395308 ${z1} 3
region kill1 sphere 108.840607036182 11.7463689395308 11.0741195408228 3
delete_atoms region kill1 compress no bond yes mol yes
Deleted 15 atoms, new total = 20721
Deleted 10 bonds, new total = 13814
Deleted 5 angles, new total = 6907




variable thip equal ${thi}*2.0/3.0
variable thip equal 375*2.0/3.0
variable tlop equal ${tlo}*2.0/3.0
variable tlop equal 215*2.0/3.0
variable cbl equal ${lx}*3.0/4.0-${dx}
variable cbl equal 435.362428144728*3.0/4.0-${dx}
variable cbl equal 435.362428144728*3.0/4.0-2
variable cbh equal ${lx}*3.0/4.0+${dx}
variable cbh equal 435.362428144728*3.0/4.0+${dx}
variable cbh equal 435.362428144728*3.0/4.0+2
variable hbl equal ${lx}*1.0/4.0-${dx}
variable hbl equal 435.362428144728*1.0/4.0-${dx}
variable hbl equal 435.362428144728*1.0/4.0-2
variable hbh equal ${lx}*1.0/4.0+${dx}
variable hbh equal 435.362428144728*1.0/4.0+${dx}
variable hbh equal 435.362428144728*1.0/4.0+2


#***************************************************
## EQUILIBRATION PERIOD - to reach the steady state ###
#run 0

#reset the timestep to start your production run
reset_timestep 0

# define a group to perform averages
#group s1 type 1
###*** SYSTEM THERMOSTATTING: HOT and COLD regions ***###

fix NVE all nve
fix PRESS all press/berendsen aniso ${runpressure} ${runpressure} 500000 couple yz
fix PRESS all press/berendsen aniso 0.986923 ${runpressure} 500000 couple yz
fix PRESS all press/berendsen aniso 0.986923 0.986923 500000 couple yz


### Apply THERMOSTATS ###

#set up the "hot region" in the middle of the box
region hot block ${hbl} ${hbh} 0 ${ly} 0 ${lz} units box
region hot block 106.840607036182 ${hbh} 0 ${ly} 0 ${lz} units box
region hot block 106.840607036182 110.840607036182 0 ${ly} 0 ${lz} units box
region hot block 106.840607036182 110.840607036182 0 23.4927378790615 0 ${lz} units box
region hot block 106.840607036182 110.840607036182 0 23.4927378790615 0 22.1482390816457 units box


#set up the "cold region" at the left end of the box
region cold block ${cbl} ${cbh} 0 ${ly} 0 ${lz} units box
region cold block 324.521821108546 ${cbh} 0 ${ly} 0 ${lz} units box
region cold block 324.521821108546 328.521821108546 0 ${ly} 0 ${lz} units box
region cold block 324.521821108546 328.521821108546 0 23.4927378790615 0 ${lz} units box
region cold block 324.521821108546 328.521821108546 0 23.4927378790615 0 22.1482390816457 units box

#set up the "cold region" at the right end of the box
#region cold2 block ${h2bl} ${xhi} 0 ${ly} 0 ${lz} units box


#Cold regions  unification
#region cold union 2 cold1 cold2 units box

#Create group of cold molecules
####group cool_ice region cold
####group cool_ice include molecule

####compute cold_temp cool_ice temp
####fix cold_rescale water temp/rescale 1 ${tlo} ${tlo} 0.0001 1.0
####fix_modify cold_rescale temp cold_temp

#this calculates the temperature using only the atoms in the "hot region"
#compute hot_temp all temp/region hot

# calculate the temperature using only WATER in the "hot region"
compute hot_temp water temp/region hot

#this calculates the temperature using only WATER in the "cold region"
compute cold_temp water temp/region cold


#set up a basic velocity rescale for the hot region WATER with thip
fix hot_rescale water temp/rescale 1 ${thip} ${thip} 1.0 1.0
fix hot_rescale water temp/rescale 1 250 ${thip} 1.0 1.0
fix hot_rescale water temp/rescale 1 250 250 1.0 1.0
#change the thermostat to only act on the "hot region"
#this is done by passing it the "hot temp" compute that we defined above
fix_modify hot_rescale temp hot_temp

#set up a basic velocity rescale for the cold region
fix cold_rescale water temp/rescale 1 ${tlop} ${tlop} 1.0 1.0
fix cold_rescale water temp/rescale 1 143.333333333333 ${tlop} 1.0 1.0
fix cold_rescale water temp/rescale 1 143.333333333333 143.333333333333 1.0 1.0
#change the thermostat to only act on the "cold region"
#this is done by passing it the "cold temp" compute that we defined above
fix_modify cold_rescale temp cold_temp

### Ensure MOMENTUM CONSERVATION ###

#ensure that linear momentum is conserved despite the "thermostatting" by velocity rescaling
fix cons_mom all momentum 1 linear 1 1 1


thermo 100
thermo_style custom step pe etotal temp atoms vol press pxx pyy pzz lx ly lz xlo xhi f_cold_rescale f_hot_rescale

group ox type 2
6907 atoms in group ox
group hy type 1
13814 atoms in group hy
compute KE all ke/atom
variable TEMP atom c_KE*4186.8/(1.3806488*6.02214129)

compute cc1 all chunk/atom bin/1d x center 2 units box
#fix TPROFILE all ave/chunk 1 500 500 cc1 v_TEMP density/number file temp.dat
fix TPROFILEox ox ave/chunk 1 500 500 cc1 v_TEMP density/number file temp-ox.dat
fix TPROFILEhy hy ave/chunk 1 500 500 cc1 v_TEMP density/number file temp-hy.dat

compute orderparam ox orientorder/atom degrees 1 2 nnn 4 cutoff 3.5
compute cc2 ox chunk/atom bin/1d x center 2 units box
#fix ORDERPARAM all ave/chunk 1 500 500 cc2 c_orderparam[1] file order-param.dat
fix ORDERPARAM all ave/chunk 1 500 500 cc2 c_orderparam[1] file order-param.dat

restart 50000 config.restart

run 500000
PPPM initialization ...
  extracting TIP4P info from pair style
WARNING: Using 12-bit tables for long-range coulomb (../kspace.cpp:316)
  G vector (1/distance) = 0.345579
  grid = 405 48 48
  stencil order = 5
  estimated absolute RMS force accuracy = 0.000406342
  estimated relative force accuracy = 1.22369e-06
  using double precision FFTs
  3d grid and FFT values/proc = 67260 38880
Neighbor list info ...
  2 neighbor list requests
  update every 1 steps, delay 1 steps, check no
  max neighbors/atom: 2000, page size: 100000
  master list distance cutoff = 12.3154
  ghost atom cutoff = 12.3154
  binsize = 6.1577 -> bins = 71 4 4
Memory usage per processor = 12.7811 Mbytes
Step PotEng TotEng Temp Atoms Volume Press Pxx Pyy Pzz Lx Ly Lz Xlo Xhi cold_res hot_resc 
       0    -103715.9    -94904.95    213.99346    20721    226528.99   -16.260488   -53.416877    135.99121   -131.35579    435.36243    23.492738    22.148239   0.35638593    435.71881            0            0 
     100   -103582.02   -94637.211    217.24456    20721    226347.75    7.0556607      54.5922   -106.09366    72.668446    435.20584    23.487562     22.14336   0.43467794    435.64052   -10.163066   -261.84898 
     200   -103541.81       -94591    217.39021    20721    226298.77   -2.2923778   -9.6778707   -93.078053     95.87879    435.08396     23.48831    22.144065   0.49561969    435.57958   -11.841075   -307.27526 
     300   -103566.15   -94548.035    219.02483    20721    226399.27    35.731489    103.13282   -185.93173    189.99337    435.09382    23.493259     22.14873   0.49068963    435.58451    -16.86876   -346.00078 
     400   -103559.16   -94466.575    220.83352    20721     226299.1   -77.023215   -37.200873    97.261514   -291.13029    435.17709    23.485814    22.141711   0.44905318    435.62615   -21.895143   -420.05741 
     500   -103476.95    -94444.97     219.3616    20721    226449.57   -22.913436   -70.533263    60.221044   -58.428091    435.17789    23.493599    22.149051   0.44865556    435.62654   -34.253153   -429.57874 
     600   -103431.48   -94423.393    218.78134    20721    226377.87    42.967849    111.68291   -3.7326524    20.953295    435.05576    23.493176    22.148652   0.50971832    435.56548   -16.600237   -473.35942 
     700   -103438.41   -94353.214    220.65402    20721    226442.89    31.996149    56.478304   -8.8952967    48.405439     435.0917    23.495579    22.150918    0.4917515    435.58345    -8.629899   -550.37055 
     800    -103393.9   -94311.699    220.58145    20721    226380.15   -78.999529   -9.2516523   -224.80104   -2.9458893    435.16522     23.49034    22.145978    0.4549916    435.62021   -26.154057   -571.47566 
     900   -103432.62   -94305.424    221.67412    20721    226489.67     31.02552    35.543116   -101.72644    159.25988    435.14417    23.496589     22.15187   0.46551632    435.60968    -21.45117    -585.3565 
    1000   -103421.99   -94247.099    222.83242    20721    226570.43   -74.901173   -110.82074   -128.22755    14.344769    435.29938    23.496588    22.151869   0.38790969    435.68729   -34.473577   -625.57701 
    1100   -103360.86   -94234.631    221.65065    20721     226504.4      106.899    91.665233    179.97966    49.052098    435.33869    23.492104    22.147641   0.36825545    435.70694   -48.636658   -633.75439 
    1200   -103425.19   -94226.285    223.41574    20721    226511.16   -61.072601   -322.75915    342.76863   -203.22729    435.24084    23.495094    22.150461    0.4171814    435.65802   -35.841423   -650.55355 
    1300   -103314.28   -94181.747    221.80368    20721    226563.36   -48.439764     68.36549   -190.91759   -22.767191      435.084    23.502036    22.157005   0.49559776     435.5796   -14.913817   -713.85351 
    1400   -103420.62   -94199.803    223.94785    20721    226826.88    39.578439    67.351716    86.957732    -35.57413    435.71673     23.49862    22.153784   0.17923739    435.89596   -28.082772   -684.43293 
    1500   -103289.55   -94141.131     222.1895    20721     226689.5    48.418333    57.191057    283.61684    -195.5529    435.41394    23.499669    22.154774   0.33063189    435.74457   -28.845689    -743.1802 
    1600   -103306.74   -94134.698    222.76328    20721    226542.77    -2.676189   -89.499393   -80.988677     162.4595    435.28194    23.495624     22.15096   0.39662771    435.67857   -29.332957   -753.34137 
    1700   -103301.71    -94125.05    222.87561    20721    226645.75    9.7116652   -1.3791254   -233.97284    264.48696    435.26685    23.501371    22.156378   0.40417293    435.67103   -21.509643   -768.53744 
    1800   -103281.94   -94069.568    223.74277    20721    226595.15   -1.8065542   -71.270128    171.26709   -105.41663     435.2128    23.500207    22.155281   0.43119797      435.644   -41.350817   -805.68022 
    1900   -103266.09   -94053.426    223.74991    20721    226487.64   -54.631577   -21.685389   -184.75522    42.545875    435.21007    23.494705    22.150094   0.43256706    435.64263   -48.091025   -816.35472 
    2000   -103297.23   -94052.431     224.5304    20721    226550.33   -82.586122   -25.884196   -153.34235   -68.531815    435.28952    23.495812    22.151137   0.39284228    435.68236   -26.583909   -836.83899 
    2100   -103165.03   -93997.364    222.65716    20721    226441.09    22.706397    208.92419   -203.87701    63.072003    435.21247    23.492226    22.147756    0.4313634    435.64384   -47.148297   -878.06324 
    2200   -103311.46   -94043.785     225.0859    20721    226393.47    14.846688    -223.4089    35.329601    232.61936    435.01738    23.495022    22.150392   0.52890838    435.54629   -24.333803   -859.31959 
    2300   -103289.13   -93982.729    226.02653    20721    226560.43    1.1795657    -4.200336    272.32028   -264.58124    435.09372    23.501622    22.156615   0.49074165    435.58446   -39.980089   -902.22415 
    2400   -103221.29   -94000.783    223.94042    20721    226407.44    31.818203    66.470956    130.34492   -101.36127    435.16187    23.491846    22.147398   0.45666504    435.61853   -52.663462   -875.65265 
    2500   -103208.67   -93993.471    223.81146    20721    226435.27    19.469091    179.01004   -31.655362   -88.947411    435.17085    23.493047    22.148531   0.45217497    435.62303   -41.705014   -892.46228 
    2600   -103194.63   -93949.749     224.5325    20721    226524.13   -28.359575   -61.450929   -14.530781   -9.0970155    435.26114    23.495219    22.150579   0.40703142    435.66817   -33.638319   -941.01047 
    2700   -103142.19   -93908.308    224.26535    20721    226462.58   -19.208968   -243.85572    -89.08274    275.31155    435.40091    23.488256    22.144014   0.33714738    435.73805   -54.226192   -963.42081 
    2800   -103185.01   -93897.211    225.57481    20721    226348.33   -55.332709   -255.65204    96.245366   -6.5914569    434.98399    23.493582    22.149034   0.54560736    435.52959    -49.45764   -982.46501 
    2900   -103199.45   -93900.468    225.84627    20721    226624.86   -6.3617349     3.047961    49.135581   -71.268747    435.30165    23.499349    22.154472   0.38677362    435.68843   -34.530039   -991.28047 
    3000    -103108.7   -93868.911    224.40863    20721     226413.5    47.189453    8.9558968    12.101236    120.51123    435.38389     23.48617    22.142047   0.34565326    435.72955   -52.865331   -1014.0713 
    3100   -103199.16   -93859.082    226.84447    20721    226449.93     14.79895    125.04668     -50.8128   -29.837029    435.34307     23.48916    22.144866   0.36606414    435.70914   -43.126304   -1030.2438 
    3200   -103061.02   -93828.688    224.22766    20721    226458.78    90.720676   -22.946798   -29.329301    324.43813     435.1612    23.494527    22.149926   0.45699976     435.6182   -57.354614   -1050.8831 
    3300   -103140.84    -93776.51    227.43358    20721    226602.73   -44.870628     9.309017   -237.71245    93.791549     435.3145    23.497855    22.153063   0.38035074    435.69485   -56.069519   -1095.6895 
    3400   -103078.84   -93758.977    226.35358    20721    226465.16   -7.5702981   -42.392914   -11.021803    30.703823    435.25949    23.492206    22.147737   0.40785712    435.66734    -46.43754   -1129.3414 
    3500   -103095.79   -93759.303    226.75733    20721    226520.99    18.690681    85.982743    53.533661   -83.444362    435.35021    23.492653    22.148159   0.36249429    435.71271   -52.453661   -1125.2592 
    3600   -103028.74   -93647.606    227.84169    20721    226527.97    -50.98421   -129.19884     -11.0942   -12.659589    435.33109    23.493531    22.148987   0.37205362    435.70315   -60.847184   -1224.5313 
    3700   -102993.32   -93668.526     226.4733    20721     226675.4    26.854829    51.230205    49.820911   -20.486629    435.31278    23.501669    22.156659   0.38120966    435.69399   -73.508678   -1189.8657 
    3800   -103055.55   -93696.919    227.29512    20721    226634.44    101.79825    114.95585    197.15357   -6.7146641    435.40371    23.497092    22.152344   0.33574737    435.73945   -78.559625   -1164.6305 
    3900   -103045.07   -93627.044    228.73753    20721    226639.34    49.173871    163.55217     65.66482   -81.695382     435.2933    23.500325    22.155392   0.39094991    435.68425   -85.359747   -1225.7291 
    4000   -102999.27   -93588.344    228.56505    20721    226514.84    -22.22885   -50.463295    50.547686   -66.770939    435.30642    23.493516    22.148972   0.38439034    435.69081   -82.466308   -1267.0532 
    4100    -102958.8   -93567.245    228.09474    20721    226540.04    53.629996    28.983267    211.16865   -79.261925    435.43413    23.491377    22.146956   0.32053702    435.75466    -96.27161   -1277.7464 
    4200   -102997.76   -93574.793    228.85758    20721     226697.5    19.245599    31.119186    89.685921   -63.068311    435.48683    23.498117    22.153311   0.29418555    435.78101   -91.342178   -1271.3641 
    4300   -103010.86   -93544.114    229.92095    20721    226713.88    9.7912502      7.48873    -40.68487    62.569891    435.34487    23.502797    22.157723    0.3651645    435.71004   -93.568595    -1298.931 
    4400   -102970.44   -93552.751    228.72933    20721    226763.31    21.639559    13.296053   -199.48828     251.1109    435.50067    23.501154    22.156174   0.28726348    435.78794   -83.266681   -1300.1326 
    4500   -102956.77    -93562.82    228.15289    20721    226714.75   -26.173984   -167.55416    273.88543   -184.85322    435.40718     23.50116     22.15618   0.33400771    435.74119    -81.86491   -1291.5093 
    4600   -102985.49   -93542.376    229.34692    20721    226709.02   -109.37793   -214.08475    3.5453109   -117.59436    435.43059    23.500232    22.155305   0.32230745    435.75289   -61.599676   -1329.5514 
    4700   -103041.84   -93512.255    231.44717    20721    226663.67   -13.262779    207.30853    -227.1909   -19.905971    435.40356     23.49861    22.153776   0.33581807    435.73938   -76.470951   -1353.3711 
    4800   -102910.23    -93506.75     228.3842    20721     226804.6    95.748611   -4.4816328    214.96798    76.759484     435.4759    23.503962    22.158821   0.29965037    435.77555   -80.864016   -1355.2853 
    4900   -102748.52   -93404.034    226.95145    20721    226721.05    20.314364    218.76405   -180.26478    22.443823    435.31158    23.504068    22.158921   0.38180957    435.69339   -103.99925   -1433.9829 
    5000    -102878.4   -93448.499    229.02604    20721    226663.96    15.527881   -109.30168   -75.004055    230.88938    435.29881    23.501453    22.156455   0.38819647      435.687   -96.525726   -1400.8028 
    5100   -102840.87   -93423.414    228.72389    20721    226829.69   -21.647885    -18.61458   -2.8249993   -43.504076    435.51938    23.504089    22.158941   0.27790922    435.79729   -91.441265   -1425.1433 
    5200   -102861.75   -93397.955     229.8492    20721    226634.06    38.431365    159.88323    214.69222   -259.28136    435.35561     23.49837    22.153549   0.35979504     435.7154    -116.1269   -1436.4168 
    5300   -102835.61   -93388.162    229.45221    20721    226629.05   -9.7960859   -5.7147723   -24.725252    1.0517665    435.53358    23.493308    22.148777   0.27081146    435.80439   -98.713913   -1462.2478 
    5400   -102963.25   -93420.055    231.77762    20721    226735.59    44.579989    182.20595    101.40709   -149.87307    435.37684    23.503059     22.15797   0.34917953    435.72602   -97.549964   -1432.9872 
    5500   -102816.76   -93359.315    229.69489    20721    226661.68    1.0787021    104.10369   -169.10321    68.235633    435.31833    23.500808    22.155847   0.37843706    435.69676   -95.118522   -1495.3057 
    5600   -102860.22   -93336.759    231.29842    20721    226801.88    -8.572827   -151.99599   -19.664649    145.94215    435.61641     23.50003    22.155114   0.22939651     435.8458   -88.431661   -1522.5362 
    5700   -102871.63   -93364.824    230.89374    20721    226710.37    30.409731   -177.74866    165.99414    102.98371    435.28325    23.504279    22.159119   0.39597376    435.67923   -108.44209   -1478.2419 
    5800   -102861.28   -93288.471    232.49678    20721    226754.08    2.0852703   -157.26157   -13.117779    176.63516    435.37115    23.504171    22.159018   0.35202668    435.72317   -133.39112   -1529.1485 
    5900   -102874.49   -93369.073    230.85998    20721    226818.28    52.797771    217.63879   -200.21527    140.96979    435.39007    23.506988    22.161674   0.34256695    435.73263   -88.637988   -1495.1502 
    6000   -102845.74   -93321.723    231.31174    20721    226806.65   -31.733481   -96.476529    57.064987     -55.7889     435.4258    23.505421    22.160196   0.32469914     435.7505    -103.4219   -1524.0999 
    6100   -102822.45   -93352.549    229.99755    20721    226786.71    22.418737   -74.562648    96.244294    45.574566    435.52924    23.501596     22.15659   0.27297845    435.80222   -100.42641   -1501.0887 
    6200   -102805.99   -93304.068    230.77531    20721     226835.8    20.675046    195.29255   -311.45893    178.19152    435.44407    23.506438    22.161155   0.31556609    435.75963   -100.01777   -1549.0071 
    6300   -102859.49   -93312.445    231.87115    20721    226818.18    32.059749   -239.33233    71.808163    263.70342    435.56219    23.502338    22.157289   0.25650672    435.81869   -86.832932   -1557.3884 
    6400   -102748.44   -93286.253    229.81017    20721    226710.69    34.359153    101.45525    82.506917   -80.884712    435.54575    23.497211    22.152457    0.2647226    435.81048   -83.053198   -1588.4157 
    6500   -102850.47   -93245.519    233.27752    20721    226769.96    28.262711    40.429749    11.168972    33.189413    435.47751    23.502124    22.157088   0.29884632    435.77635    -89.03904   -1624.8838 
    6600   -102812.03   -93197.357    233.51369    20721    226849.29   -58.928824    2.9283022    16.058521   -195.77329    435.55489    23.504146    22.158995   0.26015354    435.81505   -102.51333   -1652.2501 
    6700    -102754.9   -93215.839    231.67711    20721    226879.15    45.265068    38.738848    153.93264   -56.876284    435.64225    23.503336    22.158231   0.21647561    435.85872    -96.12328   -1644.6302 
    6800   -102697.51   -93135.029    232.24598    20721    226818.27   -10.907442   -122.98099   -104.87815    195.13681    435.54311    23.502857    22.157779   0.26604569    435.80915   -110.95619   -1711.9568 
    6900   -102810.57   -93155.121    234.50395    20721    226852.08   -45.432811   -76.734763   -133.04338    73.479712    435.61216    23.502746    22.157674   0.23152122    435.84368   -104.20548   -1696.5496 
    7000   -102668.47   -93127.955    231.71262    20721    226639.04   -18.483576   -135.89149   -161.27796    241.71872    435.36638    23.498337    22.153518   0.35441091    435.72079    -112.9354   -1720.8242 
    7100   -102788.67   -93148.078    234.14323    20721    226875.55    -1.722099   -72.506728   -301.19195    368.53238    435.46832    23.507843     22.16248   0.30344179    435.77176   -101.61972   -1709.8637 
    7200   -102715.08   -93112.347    233.22364    20721    226854.89    49.738521    83.945064    -158.0658     223.3363    435.50685    23.505732     22.16049   0.28417454    435.79103   -95.665465   -1753.4024 
    7300   -102717.59    -93159.17    232.14745    20721    226696.81   -15.605086     79.13252    125.76053   -251.70831    435.60818    23.494808    22.150191     0.233511    435.84169   -82.608465   -1721.4451 
    7400   -102732.27   -93092.426    234.12498    20721     226861.8   0.97765463    -65.72235    288.82622   -220.17091    435.80789    23.497971    22.153172    0.1336543    435.94155   -94.966227   -1773.8737 
    7500   -102703.64   -93082.647    233.66718    20721    226672.66   -40.348393    47.005708    -155.8322   -12.218689    435.38743    23.499512    22.154625   0.34388419    435.73132   -101.19741     -1781.13 
    7600   -102700.87   -93062.047    234.10011    20721    226822.95     42.56004    61.253091   -89.896429    156.32346    435.49051    23.504519    22.159346   0.29234633    435.78285   -93.378927   -1809.5871 
    7700    -102625.7   -93046.451    232.65316    20721    226834.52   -68.908062    110.50334   -96.863862   -220.36366    435.42077       23.507    22.161685   0.32721353    435.74799   -91.932763   -1823.6308 
    7800   -102631.78   -93017.032    233.51541    20721    226937.76     85.40759   -70.555081     91.27279    235.50506    435.48242    23.510685    22.165159   0.29638777    435.77881   -89.121076   -1861.2513 
    7900   -102628.23   -92988.837    234.11403    20721    226926.82    33.625742    271.38094   -112.21332   -58.290395    435.46768    23.510516       22.165   0.30375798    435.77144   -90.944746   -1886.5446 
    8000   -102633.86   -92977.243    234.53229    20721    226858.47    17.011801     2.821355    47.366865    0.8471838    435.50076    23.506082     22.16082   0.28722177    435.78798   -111.37113   -1877.6904 
    8100   -102698.53   -92969.678    236.28681    20721    227021.62    25.947415    58.182948   -5.9865059    25.645804    435.55379    23.513102    22.167438   0.26070558    435.81449   -105.93474   -1890.1373 
    8200   -102579.09   -92971.642    233.33817    20721     226916.9    74.018651    314.88379    235.24972   -328.07756    435.53197    23.508267     22.16288   0.27161595    435.80358   -104.42759   -1894.0403 
    8300   -102571.54   -92885.456     235.2479    20721    227089.89    109.11163    173.86225     149.0466    4.4260506    435.75005    23.511341    22.165777   0.16257637    435.91262    -120.8619   -1961.9649 
    8400   -102562.01   -92937.869    233.74363    20721    226816.12    1.4439116   -55.906481   -60.748671    120.98689    435.58799    23.501535    22.156533   0.24360695    435.83159   -102.07551   -1931.2167 
    8500   -102608.86   -92890.319    236.03619    20721    226915.79   -62.078932   -104.49469    116.11798   -197.86008    435.70048    23.503663    22.158539   0.18736154    435.88784   -118.89587    -1956.575 
    8600    -102529.5   -92840.264    235.32449    20721     226912.8   -14.455016   -101.16446   -91.223333    149.02275    435.53779    23.507898    22.162531   0.26870539    435.80649   -142.01121   -1986.8319 
    8700   -102614.63    -92884.74     236.3119    20721    226742.98     -57.9422    -113.2253     216.1916    -276.7929    435.58282    23.497885    22.153091   0.24619227    435.82901   -158.34378   -1931.6284 
    8800   -102542.98   -92885.731    234.54775    20721    227013.98   -2.7659276    18.439049    68.921174   -95.658006    435.72129    23.508187    22.162804   0.17695509    435.89824   -124.75202   -1958.7194 
    8900   -102584.43   -92917.384    234.78567    20721    226813.24   -1.8412681    41.434792   -129.66614    82.707548    435.50568    23.503606    22.158485   0.28475803    435.79044   -126.37785   -1933.1158 
    9000    -102518.1   -92881.344    234.05005    20721    226920.76    23.932071    116.57897   -135.24227    90.459518    435.62263    23.506021    22.160762    0.2262875    435.84891   -139.03083   -1955.2078 
    9100   -102573.73   -92869.739    235.68291    20721    226936.96    6.2013154   -51.022716    68.116759    1.5099033    435.70374    23.504671     22.15949   0.18572986    435.88947   -121.31892   -1985.2939 
    9200   -102569.45   -92853.023    235.98493    20721    226891.16   -87.937576   -124.29652   -148.70874     9.192536    435.57708    23.505717    22.160475   0.24905851    435.82614    -131.8799   -1987.1491 
    9300   -102543.24    -92838.15    235.70966    20721    226948.73    75.193121    4.0515794    121.92821    99.599573    435.50689    23.510593    22.165072   0.28415627    435.79104   -121.74878   -2019.3778 
    9400   -102494.09   -92786.032    235.78168    20721    226956.84   -27.433329    87.035826    281.88871   -451.22453    435.59246    23.508703    22.163291   0.24137057    435.83383   -149.23587   -2039.0656 
    9500   -102510.22   -92793.904    235.98235    20721    226833.46    37.926316    26.815324     203.3043   -116.34068    435.62704     23.50138    22.156386   0.22407886    435.85112   -123.64179   -2063.8967 
    9600   -102424.98   -92758.478     234.7725    20721    226948.05   -20.864405    131.05993    208.89109   -402.54423    435.62931    23.507254    22.161924   0.22294399    435.85226   -148.29472   -2069.5157 
    9700   -102436.07   -92716.549       236.06    20721    226884.98    64.343767    91.082675   -67.885636    169.83426    435.47174    23.508239    22.162853   0.30173118    435.77347   -141.28942   -2125.8351 
    9800   -102472.64   -92790.679    235.14786    20721    226813.68     18.92696    9.3384472    242.79511   -195.35267    435.25509    23.510394    22.164885   0.41005542    435.66514   -143.85066   -2051.8098 
    9900   -102502.85    -92762.62    236.56311    20721     227091.7   -22.810459   -190.76381   -169.23096     291.5634    435.50081    23.518161    22.172207   0.28719476    435.78801   -144.80606   -2070.2923 
   10000   -102559.01   -92779.773    237.51044    20721    226845.42    6.0661133   -170.82034   -90.504997    279.52368    435.38535    23.508522     22.16312   0.34492416    435.73028   -140.34536   -2065.2377 
   10100   -102563.52   -92787.103    237.44187    20721     226994.2    69.195708   -128.66099    138.87959    197.36853    435.40756     23.51563    22.169821   0.33382109    435.74138   -161.74297   -2038.2874 
   10200   -102418.15   -92774.716    234.21211    20721    226860.42   -39.811411   -144.46294    44.291697   -19.262992    435.35607    23.510089    22.164597   0.35956334    435.71564   -150.05516   -2060.6114 
   10300   -102574.42   -92723.209    239.25843    20721    227091.78    -57.86459    -50.26394   -139.98778    16.657945    435.52105    23.517619    22.171696    0.2770744    435.79813   -158.16872   -2099.8498 
   10400   -102627.25   -92750.033     239.8901    20721    226937.21   -31.539505   -7.8241606    30.293401   -117.08775    435.75745    23.503236    22.158136   0.15887595    435.91632   -154.19111   -2082.3396 
   10500   -102368.65   -92730.468    234.08468    20721    226961.89     90.75795    23.393723   -10.067565    258.94769    435.45134    23.512774    22.167128    0.3119311    435.76327   -145.19907    -2115.728 
   10600   -102474.78   -92767.018    235.77446    20721     226875.4    85.442209    71.257163   -14.092928    199.16239    435.56449     23.50524    22.160025   0.25535538    435.81984   -126.20514   -2102.3272 
   10700   -102519.78   -92737.666    237.58032    20721    227054.95   -47.856204    -88.43711   -201.13837    146.00687    435.54212    23.515143    22.169362   0.26654068    435.80866   -133.00817   -2114.4706 
   10800   -102494.53   -92682.239    238.31331    20721    226954.19    45.051197    97.528285    15.918751    21.706555      435.551    23.509685    22.164216   0.26209809     435.8131   -159.92061   -2152.4067 
   10900   -102365.71    -92676.91    235.31397    20721    226966.82    20.393601    104.83224    97.126654   -140.77809    435.53576    23.510751    22.165221   0.26972058    435.80548   -168.12447   -2146.1324 
   11000    -102508.1   -92699.727    238.21807    20721    226875.06   -53.459575     176.6543   -96.956738   -240.07629    435.47113    23.507742    22.162384   0.30203567    435.77316   -157.47959   -2136.1798 
   11100   -102482.19   -92702.139    237.53017    20721    226918.83   -25.011262    72.988011    136.79173   -284.81353    435.48834    23.509545    22.164084   0.29342989    435.78177   -130.84783   -2161.7686 
   11200   -102393.55   -92685.451    235.78261    20721    226917.63    140.48695    168.91981    59.043027    193.49802    435.56689    23.507362    22.162027   0.25415727    435.82104   -150.75938   -2166.4538 
   11300   -102462.31   -92691.686    237.30122    20721    227170.67   -2.3609922    68.394995   -134.77155    59.293577    435.87257    23.512217    22.166603   0.10131317    435.97389   -118.91574   -2180.3416 
   11400   -102493.18   -92706.956    237.68005    20721    226909.12   -54.629071   -225.11648    199.53211   -138.30284    435.45017    23.510072    22.164581   0.31251655    435.76268   -134.00887   -2155.0125 
   11500   -102331.05   -92684.064     234.2984    20721    227069.03    8.2828628    24.238643    110.05066   -109.44072    435.59243    23.514514    22.168769   0.24138692    435.83381   -126.76627   -2184.3917 
   11600   -102407.66   -92659.714    236.75035    20721    227109.76   -63.280019    92.525668   -75.448734   -206.91699    435.85328    23.509584    22.164121   0.11096093    435.96424   -118.57646   -2213.5783 
   11700    -102464.2   -92654.954    238.23918    20721    227089.52    40.269323    84.853924   -197.34309    233.29714    435.76821    23.510831    22.165297   0.15349641     435.9217   -138.18305   -2207.1199 
   11800   -102411.73    -92627.72    237.62635    20721    226865.42    66.654154    128.34261   -55.753886    127.37373      435.761    23.499422    22.154541   0.15710223     435.9181    -133.9169   -2245.8629 
   11900   -102447.73   -92666.519    237.55838    20721    227096.98    27.230303    120.25026    151.46246   -190.02181    435.73548    23.512101    22.166494   0.16985854    435.90534   -143.72843   -2190.4478 
   12000      -102375   -92611.925    237.11788    20721    227024.03     18.25451    88.838593      237.179   -271.25406    435.59056    23.512234     22.16662   0.24231812    435.83288   -144.90584   -2246.8823 
   12100   -102478.58    -92624.23    239.33472    20721    227060.43    114.21738    195.25647    38.727513    108.66816    435.61721      23.5134    22.167719   0.22899569     435.8462   -159.96617   -2225.0594 
   12200   -102459.93    -92571.55    240.16111    20721    227058.25   -28.016637   -118.44065   -133.26339    167.65414    435.58629    23.514121    22.168399   0.24445269    435.83075   -163.86023   -2266.9372 
   12300   -102343.66   -92537.219    238.17117    20721    226923.06    26.242935    51.828331   -3.5682759    30.468749    435.29693    23.514932    22.169163   0.38913353    435.68607   -160.09015   -2312.5769 
   12400   -102451.45   -92586.421    239.59402    20721    226901.52   -74.690343   -114.51229   -120.11001    10.551265    435.39103    23.511275    22.165715   0.34208463    435.73312   -138.05588   -2281.8551 
   12500   -102392.04   -92598.613    237.85505    20721    226870.95   -6.8010762   -32.265439   -124.38568    136.24789    435.35512    23.510661    22.165136   0.36003772    435.71516    -134.0122   -2279.7743 
   12600   -102428.94   -92575.855    239.30399    20721       226981   -74.772194   -122.57948   -92.904477   -8.8326228     435.5795    23.510305      22.1648   0.24785173    435.82735   -155.79587    -2276.163 
   12700   -102433.55    -92588.34    239.11266    20721    227008.64    47.127928     -137.591    42.157265    236.81752    435.49645    23.513978    22.168263   0.28937602    435.78582   -155.52516    -2268.374 
   12800   -102407.25   -92591.927    238.38696    20721    226806.28   -104.28072   -157.76474   -184.85417    29.776746    435.62008    23.500159    22.155236   0.22755759    435.84764   -133.91602   -2285.9948 
   12900   -102398.49   -92581.518    238.42698    20721    226980.07    69.644204    7.9864438    39.172356    161.77381    435.47603    23.513049    22.167388   0.29958345    435.77562   -142.15174   -2293.4327 
   13000   -102383.82   -92579.867    238.11077    20721    227054.32    87.597932   -43.693174    155.37643    151.11054    435.64419    23.512355    22.166734   0.21550362     435.8597    -135.7292   -2300.3168 
   13100   -102364.96    -92547.68    238.43437    20721    226745.58   -17.593729   -3.9080444   -62.027447    13.154304    435.59138    23.497788       22.153   0.24190806    435.83329   -152.80873   -2319.7805 
   13200   -102340.99   -92529.561    238.29234    20721    226976.32    17.588313    187.05455   -342.09916    207.80955    435.47029     23.51301    22.167351   0.30245496    435.77275   -123.79324   -2364.5227 
   13300   -102338.99    -92548.37    237.78695    20721     226593.8   -2.1545262   -11.746775   -127.06557    132.34877    435.25668    23.498953    22.154098   0.40926247    435.66594   -123.84514   -2355.7303 
   13400   -102382.81   -92501.904    239.97954    20721    226913.75    36.940268   -166.32602   -32.994399    310.14122     435.6177    23.505791    22.160545   0.22875054    435.84645   -132.72339   -2388.4832 
   13500   -102404.28   -92542.411    239.51722    20721    226891.62   -42.687668    -24.21865   -3.0692638   -100.77509    435.38855    23.510829    22.165295   0.34332323    435.73188   -126.02303   -2352.9587 
   13600   -102295.56   -92540.407    236.92539    20721    226886.25    131.93994     263.7207    122.08208    10.017032    435.52034    23.506993    22.161678   0.27742864    435.79777    -144.1883   -2347.7731 
   13700   -102486.68   -92550.151     241.3307    20721    227056.23   -103.22656   -176.53758    125.54483   -258.68694    435.87504    23.506227    22.160957   0.10008084    435.97512   -127.50656   -2339.5672 
   13800   -102323.38   -92546.391    237.45581    20721       227025    7.0477413   0.18459944    -74.27999    95.238615    435.65281    23.510605    22.165083   0.21119722      435.864   -134.33009   -2343.4279 
   13900   -102370.69   -92495.975     239.8292    20721    226871.25   -12.136058    155.60535   -230.11404    38.100521    435.57585    23.504718    22.159534   0.24967722    435.82552     -132.917   -2399.4212 
   14000    -102373.1   -92460.021    240.76112    20721    227002.45   -19.718679   -123.32919   -177.55624    241.72939    435.69128    23.508399    22.163004   0.19196025    435.88324   -120.06691   -2446.6551 
   14100   -102270.07   -92442.792     238.6773    20721    226813.96    17.406589   -84.097554    116.05032    20.266997    435.50261    23.503726    22.158599   0.28629264    435.78891   -118.82542   -2470.0394 
   14200   -102197.34   -92418.448    237.50209    20721    227027.41    60.999659    177.95265   -132.34674    137.39308    435.62532    23.511471      22.1659   0.22494204    435.85026   -138.19887   -2470.4712 
   14300   -102286.62   -92457.786     238.7151    20721    226987.24    114.87152     12.89464     75.43794    256.28197    435.80796    23.504464    22.159294   0.13361778    435.94158   -133.26593   -2443.6248 
   14400   -102402.74   -92418.816    242.48159    20721     226962.2   -141.32495   -205.41393   -284.29627    65.735337    435.55045    23.510115    22.164622   0.26237726    435.81282   -144.12854   -2461.5187 
   14500   -102329.56   -92394.114    241.30433    20721    227110.39    68.624472    94.979618   -49.208825    160.10262    435.57873    23.517025    22.171137   0.24823291    435.82697   -168.27454   -2467.5894 
   14600      -102273   -92391.785    239.98714    20721     226954.2   -28.716219   -199.08835    61.558052    51.381644    435.77734    23.503579     22.15846   0.14893081    435.92627   -154.80958   -2487.6095 
   14700   -102334.01   -92426.033    240.63704    20721    226973.16   -37.786372   -114.75882    72.817562   -71.417855    435.83456    23.503018    22.157931   0.12031842    435.95488   -128.50396   -2476.6961 
   14800   -102321.85   -92393.034    241.14329    20721    226833.31    -18.42439   -14.102602   -94.485359    53.314792    435.48193    23.505287     22.16007    0.2966329    435.77857   -135.85684   -2510.7773 
   14900   -102222.28   -92386.598    238.88125    20721    226936.11    62.797582    58.612359    68.620671    61.159714     435.5913    23.507661    22.162308   0.24194899    435.83325    -118.2622   -2535.5008 
   15000   -102301.67   -92392.106    240.67579    20721     226849.1    19.023303    12.917231    73.162699   -29.010021    435.61051    23.502636     22.15757   0.23234343    435.84286   -136.48399   -2511.8819 
   15100   -102205.27   -92355.536    239.22252    20721    226871.94    14.612119    54.643992   -38.567792    27.760157     435.5496    23.505462    22.160235    0.2627997     435.8124   -157.74784   -2527.3081 
   15200    -102235.1   -92336.931    240.39897    20721    226883.59    29.615147    4.4998648    -24.43562     108.7812    435.56887    23.505546    22.160314   0.25316538    435.82203    -135.1418   -2570.1744 
   15300   -102124.42   -92315.737    238.22556    20721    226766.69   -25.611112   -3.3906618   -128.52519    55.082516    435.35253    23.505327    22.160108   0.36133374    435.71387    -149.8877   -2578.9824 
   15400   -102159.87   -92287.359    239.77572    20721    226975.44    4.5278807    2.8876269    322.52789   -311.83187    435.75286    23.505339    22.160119   0.16116988    435.91403   -142.99918   -2609.1559 
   15500   -102256.27   -92280.251    242.28969    20721    226805.58    12.218151    142.17118   -50.009718   -55.507014    435.56482    23.501614    22.156607   0.25519148    435.82001   -145.13906   -2622.5932 
   15600   -102208.87   -92278.579    241.17904    20721    226707.03   -68.143915   -51.660747   -87.750712   -65.020287    435.35133    23.502268    22.157224   0.36193728    435.71326   -143.38268    -2626.329 
   15700   -102182.66    -92250.07    241.23506    20721    226993.47    64.413174    214.09885   -161.80852    140.94918      435.812    23.504678    22.159496   0.13160183     435.9436    -133.3938   -2663.5311 
   15800   -102095.32   -92223.304    239.76364    20721     226957.5    75.092749    75.070974   -209.95265    360.15992    435.76379    23.504116    22.158966   0.15570685    435.91949   -159.91925   -2666.2366 
   15900   -102233.89   -92203.152    243.61866    20721    226916.62   -7.5393471   -43.112865   -57.412992    77.907815     435.5906     23.50667    22.161374   0.24229853     435.8329   -146.62344   -2699.7019 
   16000   -102102.03   -92213.904    240.15507    20721     227005.7   -31.460867   -243.71384   -3.4891605     152.8204    435.65302      23.5096    22.164136    0.2110918    435.86411   -138.15707   -2692.6389 
   16100   -102131.43   -92224.007    240.62375    20721    226811.62    4.8323871   -89.977864    308.46424   -203.98922    435.42111    23.505804    22.160558   0.32704296    435.74816   -147.18497   -2685.1361 
   16200   -102184.49   -92201.287    242.46409    20721    226938.78   -27.944313   -45.140336     31.47064   -70.163245    435.55145    23.508875    22.163453   0.26187686    435.81332   -155.66421   -2694.6409 
   16300   -102089.96   -92185.817    240.54407    20721    226745.75    8.3547362   -16.385487   -142.33567    183.78537    435.48749      23.5006    22.155651   0.29385397    435.78135   -138.80564   -2733.1143 
   16400   -102197.36   -92168.697    243.56832    20721     226976.7    121.16765    183.52417   -72.346765    252.32556     435.6049    23.509396    22.163944   0.23514795    435.84005   -134.81786   -2755.4687 
   16500   -101998.58    -92104.72    240.29421    20721    226902.86   -68.902991    -192.3142   -1.7062155   -12.688562    435.50305     23.50832     22.16293   0.28607702    435.78912   -155.33638    -2794.075 
   16600   -102129.25   -92164.588    242.01385    20721     226944.8    79.936943   -15.750792    100.77999    154.78163    435.60155    23.507835    22.162472   0.23682615    435.83837   -141.49133   -2755.2126 
   16700   -101991.78   -92124.158    239.65696    20721    226960.69    98.531901   -99.376526    190.18267    204.78956    435.56548    23.509631    22.164165   0.25485754    435.82034    -165.0713   -2772.2554 
   16800   -102167.33   -92171.156    242.77916    20721    226810.54    31.721846    81.053283    110.02842   -95.916168    435.57567    23.501578    22.156573   0.24976674    435.82543   -137.56575   -2756.1786 
   16900   -102072.28   -92188.603    240.04686    20721    226825.37   -25.417823   -18.162287    -248.1556    190.06441    435.40862    23.506854    22.161548   0.33328981    435.74191   -142.56102   -2730.0543 
   17000   -102140.52   -92205.308    241.29856    20721    227009.79    70.893946    47.052895    112.05601    53.572938    435.51482    23.513541    22.167852   0.28019215    435.79501   -141.60986   -2716.6637 
   17100   -102127.42   -92223.735    240.53288    20721    227071.39   -12.925573   -249.54276   -114.26075    325.02678    435.79551    23.509157    22.163718   0.13984643    435.93535   -115.57142   -2720.6541 
   17200   -102109.58   -92188.448    240.95663    20721    226832.65   -45.514093    132.93923   -204.20191   -65.279595    435.54269    23.503614    22.158492   0.26625576    435.80894   -113.89009   -2763.7109 
   17300   -102116.89   -92161.065    241.79925    20721     226913.2    2.3806077   -140.53312     133.2909    14.384046    435.48744    23.509277    22.163832   0.29387938    435.78132   -120.47398   -2786.4288 
   17400   -102209.41   -92144.682    244.44411    20721    226713.89     68.68324    121.06116    282.60125   -197.61268     435.2981    23.504061    22.158914   0.38854978    435.68665   -124.57684    -2807.873 
   17500   -102167.24   -92129.861    243.78003    20721    226955.01   -52.034687   -219.97956   -192.93278    256.80828    435.70866    23.505473    22.160246   0.18327094    435.89193   -112.49666   -2825.6295 
   17600   -102106.68   -92149.221    241.83897    20721     226853.6   -87.851143   -26.788658   -290.89036    54.125588    435.29047    23.511507    22.165934   0.39236506    435.68283   -93.234896   -2828.1464 
   17700   -102130.19   -92112.814    243.29418    20721    226848.92   -46.567545   -61.985814   -295.64702     217.9302    435.32617    23.510301    22.164797   0.37451574    435.70068   -111.64827   -2850.6019 
   17800   -102106.75   -92039.453    244.50665    20721    226814.41    -25.67129    102.36243   -8.7454075   -170.63089    435.39442     23.50667    22.161373   0.34038964    435.73481     -119.009   -2919.3664 
   17900   -101987.37   -92064.041    241.01001    20721    226936.74    48.864661    175.92847   -149.45269     120.1182    435.24605    23.517015    22.171127   0.41457575    435.66062   -113.17933   -2899.2028 
   18000   -101961.03   -92055.114      240.587    20721    226585.37   -28.223916    75.344931     37.97601   -197.99269    435.00221    23.505388    22.160165   0.53649452    435.53871   -115.12684   -2914.5608 
   18100   -101987.25    -92020.36    242.06789    20721    226614.21    25.825876    84.646371    77.440792   -84.609536    434.98372    23.507383    22.162046   0.54574163    435.52946   -124.77148   -2941.9804 
   18200   -101882.45   -91984.642    240.39014    20721    226658.37    48.107742    26.364791   -47.625725    165.58416    435.19697    23.503912    22.158774   0.43911259    435.63609   -112.10801   -2991.7086 
   18300   -101974.23   -91975.901    242.83147    20721    226652.23   -41.196544   -48.625603   -68.165943   -6.7980855    434.98254    23.509387    22.163935   0.54633083    435.52887   -117.27726   -2993.5793 
   18400   -101949.15   -91965.759    242.46869    20721    226550.58    21.266242   -100.01401    33.928805    129.88393    435.03121    23.502799    22.157725   0.52199553     435.5532   -123.39442   -3003.3116 
   18500   -101980.04   -91983.765    242.78167    20721    226612.07   -5.1275154   -75.484253    124.08171   -63.980001    434.87501     23.51021    22.164711   0.60009455    435.47511   -110.28986   -2998.2874 
   18600   -102011.64   -91982.567    243.57822    20721    226623.27    -62.81522   -121.57007    100.97421   -167.84979    435.02733    23.506675    22.161378   0.52393696    435.55126    -122.9839   -2983.0383 
   18700   -101998.74   -91988.032    243.13208    20721    226630.38   -97.513829   -136.02092   -125.28002   -31.240552    435.16811     23.50324    22.158141   0.45354417    435.62166   -117.67026   -2983.0482 
   18800   -101881.64   -91982.969    240.41119    20721    226475.26    28.194715   -52.548538   -72.288108    209.42079    434.91316    23.502081    22.157048   0.58102093    435.49418   -129.68234   -2987.5915 
   18900   -101899.87   -91925.903    242.23974    20721    226484.57   -52.724244    29.658488   -13.824552   -174.00667    434.87372     23.50363    22.158508    0.6007406    435.47446    -139.8381   -3029.8209 
   19000   -101945.17   -91926.378    243.32858    20721     226493.6   -86.882936   -78.200757    140.81914   -323.26718    434.92086    23.502825    22.157749   0.57717017    435.49803    -112.8803   -3057.5829 
   19100   -101869.44   -91892.723    242.30658    20721     226359.1   -94.823702   -216.15715    93.133399   -161.44736     434.9167    23.495958    22.151275   0.57924813    435.49595   -126.65196   -3081.5967 
   19200   -101887.26   -91879.911    243.05053    20721    226495.88    12.980997   -82.326743    238.62464   -117.35491    435.05273    23.499381    22.154502   0.51123406    435.56397   -130.11487    -3092.712 
   19300   -101813.75   -91878.506    241.29944    20721    226428.46    29.383775    13.801021   -165.69766    240.04796    434.71686    23.504958     22.15976   0.67916964    435.39603   -112.93559   -3114.2961 
   19400   -101842.88    -91873.99    242.11651    20721    226365.56   -39.475989   -55.231737    4.3421738   -67.538403    434.83265    23.498564    22.153731   0.62127388    435.45393   -96.042882   -3135.3099 
   19500   -101851.17   -91863.399    242.57512    20721    226378.42    32.387167   -48.789273    169.81701   -23.866234    434.39279    23.511125    22.165574   0.84120316      435.234   -113.00787   -3134.2014 
   19600   -101878.47   -91813.001    244.46209    20721     226279.6   -100.70745   -53.914539    -71.47632    -176.7315    434.50178    23.503045    22.157956   0.78670802    435.28849   -113.33372   -3179.9611 
   19700   -101856.45   -91790.866    244.46498    20721    226537.02   -3.0471781   -18.606363    -153.9059    163.37073    434.62055    23.513197    22.167527   0.72732718    435.34787   -122.63644   -3194.3667 
   19800    -101750.5   -91761.147    242.61361    20721    226475.66   -5.8518223    54.331523   -208.53081    136.64382    434.38622    23.516353    22.170502   0.84448918    435.23071   -104.72513    -3242.442 
   19900   -101695.07   -91786.788    240.64444    20721    226430.78    35.403967    73.979254     151.6943   -119.46165    434.45878    23.512059    22.166454   0.80821142    435.26699   -101.37522   -3224.7412 
   20000   -101806.26   -91772.926    243.68182    20721     226458.3   -13.549491    -35.29467   -9.6539685    4.3001666    434.59374    23.509836    22.164359   0.74072839    435.33447   -130.06577   -3207.5984 
   20100   -101725.27   -91771.481    241.74992    20721     226535.1    68.754601    258.91075   -89.761149    37.114198    434.32684    23.521046    22.174927   0.87418107    435.20102   -117.43579   -3224.5691 
   20200    -101749.3   -91783.852    242.03297    20721    226514.57    75.276413    136.21931    -61.30521    150.91514    434.37099    23.518785    22.172795   0.85210272     435.2231   -111.05853   -3220.3698 
   20300   -101791.93   -91743.459     244.0493    20721    226695.24    -51.20496   -71.257731    223.16741   -305.52456    434.46006    23.525751    22.179362   0.80757117    435.26763   -121.37146   -3240.5881 
   20400   -101730.84   -91726.802     242.9702    20721    226459.41   -14.733043    76.287374   -132.69105    12.204552    434.61669    23.509273    22.163828   0.72925251    435.34595    -116.4205   -3271.9665 
   20500   -101712.73   -91671.993    243.86141    20721    226429.84   -101.21866   -1.4630447   -66.058157   -236.13478    434.37949    23.514156    22.168431   0.84785507    435.22734    -144.7259    -3295.174 
   20600   -101724.98   -91728.252    242.79263    20721    226362.28    78.019413    331.67106   -110.93332    13.320498    434.36653    23.510998    22.165454   0.85433683    435.22086   -115.42989   -3280.0775 
   20700   -101667.12   -91681.001    242.53509    20721    226258.68    38.471003    87.387151    203.48209   -175.45623     434.4335    23.503806    22.158673   0.82085129    435.25435   -131.94094   -3313.4541 
   20800   -101720.33   -91657.973    244.38667    20721     226297.7    34.485607    34.868689    146.59115   -78.003016    434.29716    23.509521    22.164062   0.88902058    435.18618   -117.92051   -3350.1514 
   20900   -101778.71   -91665.578    245.61988    20721    226163.17   -147.09044   -193.71541    -74.39623   -173.15968    434.33931    23.501392    22.156398   0.86794392    435.20726   -132.55854   -3326.0146 
   21000   -101660.49   -91632.401    243.55432    20721    226245.26   -20.922328    66.857086    36.803264   -166.42734    434.23192    23.508563    22.163159   0.92164024    435.15356   -138.01349   -3358.0441 
   21100   -101630.59   -91583.422     244.0178    20721    226275.26    4.3555328   -189.87636    206.94306   -4.0000938    434.41125    23.505269    22.160053   0.83197642    435.24322   -150.94238   -3395.5486 
   21200   -101708.26   -91610.326    245.25059    20721    226261.64   -14.909517    157.07887   -123.63274   -78.174676    434.13342    23.512081    22.166475   0.97088775    435.10431   -144.27757   -3377.1938 
   21300   -101557.78   -91602.853    241.77739    20721    226258.86    67.617407    67.623186   -112.09502    247.32406    434.18551    23.510526    22.165009   0.94484489    435.13036     -152.968    -3378.638 
   21400    -101613.6    -91632.11    242.42266    20721    226362.72    125.57607   -41.232138    245.86847    172.09189    434.37842    23.510699    22.165173   0.84839019    435.22681   -148.37212   -3356.3093 
   21500   -101533.24   -91609.874    241.01088    20721    226143.85    31.818364   -219.32299    54.245484     260.5326    434.17009    23.504968    22.159769   0.95255575    435.12264   -141.58393   -3386.6996 
   21600   -101644.86   -91536.899    245.49429    20721    226453.56   -57.500151   -241.01485    25.581344    42.933051    434.38929    23.515122    22.169342   0.84295367    435.23225   -172.28806   -3418.7338 
   21700   -101730.65   -91573.365    246.69209    20721    226389.57   -42.935453    27.306593    115.02938   -271.14233    434.66034    23.504467    22.159297   0.70742925    435.36777   -163.76706   -3395.2987 
   21800   -101600.39   -91548.191    244.13997    20721    226434.92    22.765777   -203.11984    2.3388847    269.07829    434.39225    23.514074    22.168354   0.84147563    435.23372   -151.95351   -3433.4322 
   21900   -101506.12   -91557.354    241.62781    20721    226401.55    3.5693795    193.73376   -229.89212    46.866495    434.61911    23.506204    22.160935   0.72804489    435.34716   -181.27437   -3398.0816 
   22000   -101580.04   -91503.851    244.72264    20721    226402.93   -8.5136402   -161.01917   -47.112665    182.59091    434.79665    23.501476    22.156477   0.63927621    435.43592   -187.00459   -3446.1096 
   22100   -101590.44   -91464.241     245.9372    20721    226347.79   -29.766769    87.584327   -9.8329686   -167.05167    434.48982     23.50691      22.1616   0.79269166    435.28251   -178.94726   -3494.9221 
   22200   -101520.55   -91450.752    244.56732    20721    226563.42    -22.12617    6.8998018     38.38925   -111.66756    434.79622    23.509816     22.16434   0.63948879    435.43571   -166.88635   -3515.7264 
   22300   -101519.27   -91492.879    243.51305    20721    226526.06    12.334235   -16.273028   -52.097527    105.37326    434.55947     23.51428    22.168549   0.75786605    435.31733   -165.90644   -3478.0638 
   22400   -101615.71   -91494.622    245.81297    20721    226314.84   -83.398648   -116.10748   -266.24086     132.1524    434.73101    23.498678    22.153839   0.67209547     435.4031   -143.52682   -3502.3819 
   22500   -101514.87   -91475.058    243.83908    20721    226481.84   -5.1955589   -3.5437008    63.021251   -75.064227    434.59417    23.511046      22.1655   0.74051735    435.33468   -139.21479   -3524.4176 
   22600   -101477.73   -91482.739    242.75042    20721    226438.12    52.754179   -137.18098   -9.2620117    304.70553    434.58498    23.509026    22.163595   0.74510793    435.33009   -134.78846   -3527.2472 
   22700   -101551.62   -91436.285    245.67337    20721     226358.5   -114.98191   -54.352832   -87.148423   -203.44448    434.74839    23.500474    22.155533    0.6634065    435.41179   -168.44737   -3535.9533 
   22800   -101527.67    -91465.81    244.37453    20721    226359.53    6.9498976   -99.071437    217.95628   -98.035155    434.63035    23.503719    22.158591   0.72242566    435.35277   -166.34383   -3514.6109 
   22900    -101546.4   -91480.681     244.4683    20721    226459.71    20.529762    56.597408    -191.3325    196.32437     434.5822    23.510222    22.164722   0.74650225     435.3287   -161.34278   -3504.4328 
   23000   -101500.26   -91433.254    244.49949    20721    226411.36   -5.0538779    187.73967    91.120143   -294.02144    434.54615    23.508687    22.163275   0.76452486    435.31068   -176.45175   -3539.0866 
   23100   -101445.21   -91395.072    244.08995    20721     226413.8     71.01618   -46.812837    153.49936    106.36202    434.43506    23.511819    22.166228   0.82007207    435.25513   -187.24968   -3568.4911 
   23200   -101471.24   -91390.102    244.84265    20721    226350.03   -39.145179    55.409414   -240.14082    67.295872     434.2849    23.512571    22.166938   0.89514911    435.18005    -175.1096   -3585.5007 
   23300   -101645.17   -91379.977    249.31282    20721    226478.54     30.47619    7.7164962    142.25657   -58.544495    434.53928     23.51236    22.166738    0.7679578    435.30724    -166.2926   -3606.0226 
   23400   -101517.19   -91366.102    246.54174    20721    226357.91   -120.09234   -13.322743   -93.009039   -253.94523    434.17588    23.515933    22.170106   0.94966099    435.12554   -175.59233   -3608.5098 
   23500    -101413.4   -91358.956    244.19446    20721    226506.62    85.211108    111.55139    207.58336   -63.501426    434.50853    23.514649    22.168897    0.7833349    435.29187   -160.21316   -3636.9324 
   23600    -101499.1   -91393.896    245.42726    20721    226546.39   -61.168178     44.32129   -133.86484   -93.960983    434.72736    23.510794    22.165262   0.67392045    435.40128   -144.33964   -3609.6196 
   23700   -101537.64    -91376.57    246.78417    20721     226669.7   -74.626485   -61.440858    50.150796   -212.58939    434.59876    23.520671    22.174574   0.73822231    435.33698    -150.8468   -3619.0305 
   23800   -101484.21   -91361.583    245.85041    20721    226491.95   0.80660547    62.569647    -20.41552   -39.734311    434.62157     23.51083    22.165296   0.72681376    435.34839   -161.38945   -3632.8738 
   23900   -101481.01   -91341.988    246.24868    20721    226656.21    -66.48225    89.911297   -174.73744   -114.62061    434.83066    23.513699       22.168   0.62227125    435.45293   -155.32739   -3652.3101 
   24000   -101482.22   -91331.289    246.53786    20721    226603.81    36.886044    213.51094    201.10234   -303.95515    434.75143    23.513122    22.167457   0.66188272    435.41332   -163.88943   -3661.6629 
   24100    -101403.9   -91313.934    245.05711    20721    226498.75   -4.3107235   -88.739735    102.08721    -26.27965    434.58193    23.512256     22.16664   0.74663644    435.32856   -165.47938   -3679.0857 
   24200   -101457.53   -91328.971    245.99439    20721    226727.04    3.5368033  -0.80351279    116.23646   -104.82254    434.78058    23.518727    22.172741   0.64731032    435.42789   -156.23497   -3667.1038 
   24300    -101455.9   -91320.549    246.15937    20721    226461.14   -9.7211768    100.30386    122.66209   -252.12948    434.32248    23.517324    22.171418   0.87635772    435.19884   -176.51637   -3665.7218 
   24400   -101522.17   -91289.609     248.5205    20721    226517.71   -32.488382    -64.45741    34.481351   -67.489087    434.61083    23.512457     22.16683   0.73218256    435.34302   -185.65886   -3685.5949 
   24500   -101320.56   -91245.432    244.69688    20721    226418.37    74.676033    168.93911   -100.86145    155.95044    434.20092    23.518395    22.172428   0.93714062    435.13806    -185.5044    -3738.577 
   24600   -101434.93   -91264.332     247.0154    20721    226463.82   -5.0585731   -118.47111   -39.170924    142.46631    434.31502    23.517665     22.17174   0.88009019    435.19511   -194.91867   -3706.5799 
   24700   -101297.23   -91241.397    244.22819    20721    226437.67   -40.031681   -168.17191    -119.4072    167.48406    434.24252     23.51827     22.17231    0.9163389    435.15886   -190.92431   -3730.9488 
   24800   -101375.37   -91224.146    246.54502    20721    226405.63   -27.968397   -83.286518   -202.10992    201.49125    434.11336    23.520105     22.17404   0.98092123    435.09428   -180.57685   -3762.3338 
   24900   -101467.17   -91218.983    248.89991    20721    226484.94    11.081248   -75.216466    107.89232   0.56789396    434.42913    23.515673    22.169862   0.82303732    435.25216   -195.68652   -3753.9912 
   25000   -101304.13   -91233.338    244.59157    20721    226283.43    19.825278   -21.673972    -90.40643    171.55623    434.16768    23.512285    22.166668   0.95375763    435.12144   -193.15328    -3745.621 
   25100   -101368.86   -91216.788     246.5656    20721    226401.99   -1.9748898    69.986488    75.494899   -151.40606    434.25074    23.516195    22.170354   0.91223201    435.16297   -226.65538   -3728.3849 
   25200   -101292.57   -91157.754    246.14648    20721    226384.23    28.699947   -101.60035    243.65485   -55.954655    434.22956    23.515846    22.170025   0.92281951    435.15238     -223.261   -3793.6193 
   25300   -101357.75    -91162.24    247.62042    20721    226417.84    51.958222     171.9671    187.77913   -203.87156    434.40806    23.512759    22.167115   0.83357096    435.24163   -209.59995   -3803.5849 
   25400   -101307.61   -91192.742    245.66184    20721    226423.66    17.112011    76.092762    53.165827   -77.922554    434.49484    23.510714    22.165186   0.79018233    435.28502   -204.12089   -3777.0164 
   25500   -101372.16    -91146.47    248.35362    20721    226341.22   -70.603486    65.924874   -254.54545   -23.189883    434.44663    23.507737     22.16238    0.8142855    435.26091   -178.13746   -3847.9423 
   25600   -101231.45   -91149.233    244.86907    20721    226460.26   -17.391176    270.08597   -59.543403   -262.71609    434.56717    23.510657    22.165132   0.75401625    435.32118   -172.45508   -3850.7845 
   25700   -101290.64   -91131.242    246.74351    20721    226320.93    -41.73017    50.145996   -24.622752   -150.71375    434.50009    23.505237    22.160023    0.7875527    435.28765   -185.79239   -3860.1932 
   25800   -101288.34    -91111.47    247.16771    20721     226609.1    12.016263   -92.914217   -220.44207    349.40507    434.77888    23.512655    22.167016   0.64816177    435.42704   -212.95432   -3849.2527 
   25900   -101280.38   -91094.682    247.38225    20721    226430.88    97.752736    32.117995    50.102142    211.03807    434.63341     23.50734    22.162006   0.72089457    435.35431   -214.67367   -3873.6492 
   26000   -101209.15   -91085.098    245.88507    20721    226607.35   -25.685154    -119.8176    114.01391   -71.251771    434.72395    23.514049    22.168331   0.67562706    435.39957   -208.33567   -3878.6263 
   26100   -101365.91   -91065.819    250.16043    20721    226567.27   -91.862168   -76.646655    83.682392   -282.62224     434.8013    23.509878    22.164399   0.63695167    435.43825   -206.43668     -3900.24 
   26200   -101217.95   -91040.907      247.172    20721    226503.71     45.94743    132.17545    349.74527   -344.07843    434.76087    23.507673     22.16232   0.65716644    435.41803   -201.14122    -3939.745 
   26300    -101206.9    -91013.28    247.57458    20721    226516.33   -87.096855   -51.671005   -189.23371    -20.38585    434.71537    23.509559    22.164097   0.67991422    435.39529   -208.30528    -3953.193 
   26400   -101157.73   -91026.776    246.05267    20721    226444.32    26.124947   -26.440545   -22.063495    126.87888     434.3377    23.516039    22.170206   0.86875081    435.20645   -205.23071   -3951.9481 
   26500   -101226.79   -90996.603    248.46261    20721    226426.52    37.727321   -46.356734    27.910541    131.62816    434.42332    23.512797     22.16715   0.82594243    435.24926   -200.54023   -3988.9823 
   26600   -101300.25   -91047.989    248.99875    20721    226129.39    31.626073   -8.8684152    107.47042    -3.723786    434.10056    23.506098    22.160835   0.98731778    435.08788   -188.58163   -3959.6161 
   26700   -101276.45   -91044.825    248.49758    20721    226171.02   -52.072677    21.849254   -27.483937   -150.58335    434.10136     23.50824    22.162854   0.98692116    435.08828   -201.84272   -3945.0812 
   26800   -101285.44   -91060.361    248.33867    20721     226266.8    37.323494    141.20256   -36.789735    7.5576562    433.95386    23.517213    22.171314    1.0606719    435.01453   -217.01736   -3918.3221 
   26900   -101189.28   -91033.752    246.64938    20721     226306.8    105.77042    45.561264    10.643005    261.10698    433.95259    23.519326    22.173305    1.0613027     435.0139   -207.99372   -3956.7424 
   27000   -101147.88   -90971.801    247.14851    20721    226437.97    3.3085629      114.902   -209.34328    104.36696    434.09361    23.522319    22.176128   0.99079468    435.08441   -205.43726   -4012.3045 
   27100   -101173.69    -90960.21    248.05685    20721    226250.75    17.496938    -15.61334   -89.270222    157.37438    433.90938    23.517584    22.171664    1.0829094    434.99229   -217.93857   -4019.0716 
   27200   -101211.24   -90964.454      248.866    20721    226333.27   -1.6124789   -90.558299    -37.41707    123.13793    433.94875    23.520806    22.174701    1.0632266    435.01197   -221.38186   -4010.0515 
   27300   -101276.72   -90982.334    250.02191    20721     226258.4    6.1997077   -46.804281    136.51976   -71.116356    433.89983    23.518241    22.172283    1.0876867    434.98751   -211.66691   -4005.6379 
   27400   -101269.79   -90946.722    250.71867    20721    226161.92   0.86561922    87.158747    4.4708469   -89.032736    434.26239    23.503408    22.158299   0.90640367     435.1688   -215.20748   -4042.6314 
   27500   -101188.23   -90967.758    248.22683    20721     226248.9   -31.472615     -55.2727    185.74483   -224.88997    434.12369    23.511683      22.1661   0.97575576    435.09944   -194.97727   -4036.8443 
   27600   -101233.17   -90913.866    250.62705    20721    226294.64    76.823262     155.0963    -32.06592    107.43941    434.23989    23.510913    22.165374   0.91765321    435.15755   -224.83437   -4066.5689 
   27700   -101049.77   -90897.733    246.56464    20721     226189.9    12.184383   -9.9673389   -91.256886    137.77737    434.24505    23.505332    22.160112   0.91507749    435.16012   -198.30023   -4108.4329 
   27800   -101222.02    -90897.93    250.74337    20721    226443.56    34.672922   -148.73919   -36.119626    288.87759    434.20456    23.519605    22.173568   0.93531949    435.13988   -206.55921    -4097.335 
   27900    -101109.2   -90913.257    247.63098    20721    226129.01    -5.107742    37.990225   -24.506523   -28.806928    434.01723    23.508335    22.162944    1.0289852    435.04621   -185.46357   -4110.6144 
   28000   -101148.99   -90881.398    249.37119    20721    226137.73    2.8190008    -61.56197   -45.969801    115.98877    433.99569    23.509372    22.163921    1.0397561    435.03544   -204.56753   -4124.2769 
   28100   -101208.14   -90879.184    250.86151    20721    226182.13   -22.999789    -39.09454    -186.6696    156.76477    433.87093    23.515059    22.169283    1.1021336    434.97307   -213.22387   -4117.2749 
   28200   -101076.37   -90837.476     248.6742    20721    226108.59    100.72932    85.539019    320.95509   -104.30614    433.88912    23.510743    22.165214    1.0930389    434.98216   -220.20642   -4158.9145 
   28300   -101026.36   -90841.777     247.3551    20721    226229.41     12.46544    -11.53535   -8.0024257    56.934097    433.85089     23.51806    22.172112    1.1121546    434.96305   -228.04646   -4138.6595 
   28400   -101067.28   -90829.452    248.64838    20721    226131.01    10.485417    20.987223   -7.0468183    17.515847    433.72676    23.516309    22.170462    1.1742209    434.90098    -209.8834   -4174.6999 
   28500   -101119.17   -90775.758    251.21258    20721     226414.6  -0.87144908    15.385119    -232.1479    214.14843    433.92318    23.525724    22.179338    1.0760117    434.99919   -213.19558   -4219.1216 
   28600   -101019.43   -90798.192     248.2453    20721    226222.99    23.422689    41.560003    9.9313254    18.776737    433.88919    23.516688    22.170819    1.0930057    434.98219   -234.66019   -4180.3852 
   28700   -101110.45    -90778.22    250.94114    20721    226136.14   -81.084572   -225.06808    108.34886   -126.53449      433.832    23.513724    22.168024    1.1216021     434.9536   -219.10418   -4216.9781 
   28800   -101084.91   -90787.297    250.10029    20721    226256.38   -24.413092    5.2386875    17.761006    -96.23897    434.02228    23.514818    22.169056    1.0264623    435.04874   -215.99363   -4211.7996 
   28900   -101036.14   -90769.185    249.35571    20721    226257.13   -32.384622   -42.437935     198.4097   -253.12563    433.97855    23.516042    22.170209    1.0483236    435.02688   -235.52493   -4209.9778 
   29000    -101105.9   -90766.645    251.11169    20721    226444.09   -61.179887   -61.941141   -20.093085   -101.50543    434.00176    23.525126    22.178774     1.036719    435.03848   -248.71469   -4194.5488 
   29100   -101017.46   -90792.861    248.32697    20721    226263.19    111.86585    144.48874    213.89392    -22.78511    433.87535    23.519153    22.173143    1.0999262    434.97527   -252.92385   -4176.5222 
   29200   -101028.83   -90782.049    248.86584    20721    226317.93    17.975459   -2.0344832    36.551702    19.409159    434.02716    23.517884    22.171946    1.0240204    435.05118   -247.93613   -4189.3996 
   29300   -101105.48   -90751.344    251.47321    20721    226402.71   -15.453511   -88.691128   -100.70665    143.03724    433.79611    23.528552    22.182003    1.1395443    434.93566   -255.53143   -4210.7695 
   29400   -101037.28   -90797.081      248.706    20721    226342.85    116.81663    207.79728    38.984186    103.66841    433.88205    23.523111    22.176874    1.0965762    434.97862   -246.94361   -4182.5584 
   29500   -101012.01   -90776.497    248.59198    20721    226139.12    6.2171582    89.610282   -99.172894    28.214087    434.10595    23.506458    22.161174   0.98462713    435.09057   -243.02909   -4209.9031 
   29600   -101055.72   -90761.461    250.01894    20721    226471.34    44.316164   -13.306548   -97.906175    244.16121    434.24191    23.520035    22.173974   0.91664374    435.15856   -234.16612   -4226.3075 
   29700   -101096.56   -90772.257    250.74861    20721     226349.5   -106.42148   -171.24982   -119.28767   -28.726958    434.16089    23.515902    22.170078    0.9571573    435.11804   -228.57332   -4219.5193 
   29800   -101035.59   -90732.129    250.24237    20721    226278.33    32.155725    122.59739   -198.40566    172.27544    433.98392    23.516998     22.17111    1.0456394    435.02956    -242.5713   -4257.9332 
   29900    -101018.6   -90751.911    249.34919    20721    226537.39    57.342291   -75.354134    72.962993    174.41801     434.1694    23.525429     22.17906   0.95289975     435.1223   -228.94477   -4246.4023 
   30000   -101034.01   -90717.408    250.56156    20721    226602.07    -74.62573   -102.85705    44.285453   -165.30559    434.24773    23.526665    22.180224   0.91373362    435.16147   -234.80029   -4266.2357 
   30100      -100961   -90721.166      248.697    20721     226288.3   -23.838688     34.22338    197.96271   -303.70215    434.13569    23.513405    22.167723   0.96975746    435.10544   -235.70402   -4274.9247 
   30200   -101143.24   -90730.977    252.88491    20721    226401.12   -83.555708    32.180263   -25.527301   -257.32009    434.19398    23.517687     22.17176   0.94060814    435.13459   -231.53789   -4264.1845 
   30300   -101103.22   -90695.456    252.77568    20721    226597.44   -1.6632333   -26.672128    -34.17459    55.857018    434.46558    23.520526    22.174436    0.8048094    435.27039   -228.70618   -4301.1464 
   30400   -101007.62   -90731.195    249.58585    20721    226421.46    8.8300292    3.5167457    97.711168   -74.737826    434.21398    23.518201    22.172245   0.93060862    435.14459   -240.11685   -4260.3481 
   30500   -100981.19   -90692.531    249.88275    20721    226413.99   -11.956406    -23.83699     48.72754    -60.75977    434.35287    23.514053    22.168335   0.86116338    435.21404   -255.34642   -4282.9658 
   30600   -100978.27    -90691.81    249.82934    20721    226354.63    101.59709    127.61055    462.93095   -285.75023    434.14502    23.516598    22.170734   0.96509098    435.11011   -243.82243   -4306.3607 
   30700   -100946.32   -90726.836    248.20268    20721    226293.42    17.650185     219.9058   -43.996032   -122.95921    433.92343    23.519421    22.173395    1.0758846    434.99932   -215.81247   -4295.8228 
   30800   -101013.58   -90713.457    250.16127    20721     226437.6   -44.581518    136.38392   -478.92869    208.80022    434.33226    23.515837    22.170016    0.8714705    435.20373   -229.06225   -4292.3195 
   30900   -101031.79   -90715.404    250.55624    20721    226481.62   -10.964508   -111.35585    23.005309    55.457015    434.31678    23.518542    22.172566   0.87920951    435.19599   -225.21862   -4298.2624 
   31000   -100962.92   -90682.517    249.68227    20721    226560.72    70.477027    55.658402    154.71573    1.0569456    434.35038    23.521739     22.17558   0.86241086    435.21279   -225.50778   -4332.8679 
   31100   -100937.51   -90708.698    248.42945    20721       226507   -16.518598   -209.90679    140.58664     19.76436    434.48783    23.515229    22.169443   0.79368519    435.28151   -237.49946   -4293.6275 
   31200      -100923   -90698.927    248.31418    20721       226571    27.154931    147.10648   -378.16348    312.52179    434.41433    23.520541    22.174451   0.83043731    435.24476   -244.80398    -4298.545 
   31300   -100981.39   -90689.666    249.95721    20721    226570.05   -20.130316   -82.065461   -113.59176    135.26627    434.59364    23.515639    22.169829   0.74077854    435.33442   -243.50795   -4306.3216 
   31400   -100962.59   -90697.547    249.30939    20721    226386.05   -8.9963462    -328.5664    195.60964    105.96772    434.58733    23.506259    22.160986   0.74393346    435.33127   -244.53614   -4305.5015 
   31500   -100975.12    -90716.05    249.16424    20721    226679.01    5.1781476    106.56922    106.75486   -197.78964    434.50832    23.523602    22.177337    0.7834397    435.29176   -231.13081   -4295.0869 
   31600   -101076.77   -90750.641    250.79284    20721    226483.63   -77.176357   -220.75633    32.645613   -43.418352    434.25756     23.52025    22.174177   0.90881952    435.16638   -243.17673   -4252.5506 
   31700   -100951.86   -90707.387    248.80962    20721    226389.04   -39.884264    113.69758   -341.39657     108.0462     434.0709    23.520393    22.174312      1.00215    435.07305   -250.65374   -4293.9006 
   31800   -100973.04   -90696.454    249.58973    20721    226323.76   -26.374709    55.365861   -128.65183   -5.8381595    434.24523    23.512281    22.166664   0.91498373    435.16022    -253.3863   -4303.3185 
   31900   -100974.95   -90696.447    249.63614    20721    226293.98   -46.162596   -70.668974     90.64221   -158.46102    434.05169    23.515975    22.170146    1.0117525    435.06345   -257.30416   -4302.3356 
   32000   -100943.62   -90700.409    248.77905    20721    226442.76    90.157813   -95.652396   -32.253827    398.37966    434.10563    23.522243    22.176055   0.98478331    435.09042   -265.20591   -4292.8326 
   32100   -100979.44   -90681.438    250.10985    20721    226326.72   -59.275635    76.711248   -272.73839    18.200238    434.10276    23.516293    22.170446    0.9862225    435.08898   -277.96583   -4296.2505 
   32200   -101092.86   -90688.547    252.69176    20721    226133.66   -41.474214   -44.570582   -49.028793   -30.823268    433.69566     23.51729    22.171386    1.1897682    434.88543   -278.60333   -4295.9376 
   32300   -100970.06   -90671.906    250.11337    20721    226179.91    27.827254    154.78598    183.73578      -255.04    433.84616    23.515616    22.169807    1.1145195    434.96068   -275.19864   -4320.7501 
   32400   -100900.68   -90611.935    249.88501    20721    226354.29   -67.487477    -157.5636   -103.47228    58.573452    433.88422    23.523647    22.177379    1.0954903    434.97971   -275.00933   -4371.8327 
   32500   -100893.73   -90612.174    249.71033    20721    226281.73    39.054505    222.33368    62.412055   -167.58222    433.85191    23.520752     22.17465    1.1116437    434.96356   -286.46581   -4368.8821 
   32600   -100939.97   -90629.387     250.4153    20721    226211.34    31.974589     -47.7945     61.15649    82.561779    434.05161    23.511683      22.1661    1.0117951     435.0634   -283.12715   -4358.2511 
   32700   -100916.49   -90598.997    250.58325    20721    226326.12    2.8866616   -118.35428    254.27589   -127.26162    434.21854    23.513126     22.16746   0.92832763    435.14687    -297.1473   -4370.7402 
   32800   -100920.24   -90571.068    251.35255    20721    226330.16   -52.708648   -23.082748    -122.9851   -12.058102    434.04901    23.517928    22.171987    1.0130967     435.0621   -311.27982   -4380.7837 
   32900   -100893.25   -90561.753    250.92325    20721    226404.62    90.084622    109.90894   -28.001135    188.34606    434.11944    23.519888    22.173835   0.97787982    435.09732   -297.45194   -4410.8941 
   33000   -100961.77   -90583.368    252.06238    20721    226267.92   -93.422956   -222.54596   -296.59195    238.86904    434.14587     23.51207    22.166465   0.96466532    435.11053    -298.7093   -4383.6821 
   33100    -100857.1    -90556.14    250.18155    20721    226123.79   -4.4156639   -12.732832   -183.76046     183.2463    434.07474    23.506506     22.16122     1.000229    435.07497   -308.19614   -4410.2772 
   33200   -100920.65   -90547.988    251.92311    20721    226063.61    12.524205    136.29238   -31.448752   -67.271017    433.88166    23.508607      22.1632    1.0967683    434.97843    -311.0687   -4419.0169 
   33300    -100827.4   -90554.319    249.50451    20721    226087.59    141.25076   -3.8178042     325.9835    101.58659    433.54618    23.518948    22.172949    1.2645096    434.81069   -297.24657   -4432.9397 
   33400   -100768.29   -90533.073    248.58491    20721    225888.49   -10.977449   -12.369036   -123.06214    102.49883    433.62424    23.506474    22.161189     1.225479    434.84972   -309.25618   -4442.6449 
   33500   -100977.64   -90554.103    253.15873    20721    226235.36   -32.162959    81.071095   -44.995196   -132.56478     433.5037    23.527786    22.181281    1.2857503    434.78945   -296.92227   -4426.4124 
[...]
  491800   -95697.744    -84215.18     278.8795    20721    220643.84    86.535725    9.0857578    120.20681    130.31461    422.66736    23.531183    22.184484    6.7039199    429.37128    5423.6961    -23676.48 
  491900   -95899.867   -84229.452    283.44184    20721    220550.07   -107.34903   -187.43977   -398.25677    263.64945     422.4263    23.532894    22.186097    6.8244501    429.25075    5432.0615   -23667.215 
  492000   -95850.282   -84232.142    282.17223    20721    220696.03    24.211241   -113.46654   -39.352272    225.45253     422.3325    23.543294    22.195902    6.8713498    429.20385     5430.835    -23665.53 
  492100   -95928.209   -84251.562    283.59324    20721    220766.08    -59.10499     18.89351   -39.295131   -156.91335     422.3552    23.546397    22.198828    6.8600024     429.2152    5436.5898   -23647.102 
  492200   -95857.691   -84279.664    281.19801    20721    220596.88    9.3046118    6.5992171    126.86387   -105.54925    422.09648    23.544584    22.197118     6.989361    429.08584     5432.435   -23624.452 
  492300   -95840.259   -84233.028    281.90728    20721    220778.95   -69.074508    88.799518   -17.713109   -278.30993    421.98308    23.557463     22.20926    7.0460616    429.02914    5446.4762   -23676.261 
  492400   -95845.277   -84261.221    281.34444    20721     220819.4    39.017903    58.400315    236.15902   -177.50563    422.39147    23.548229    22.200555    6.8418627    429.23334    5435.3545   -23644.956 
  492500   -95922.164   -84256.089    283.33645    20721    220853.24    39.349979   -99.746912    162.59645    55.200402    422.45383    23.548296    22.200617    6.8106858    429.26451    5415.9015   -23629.638 
  492600   -95870.934    -84273.48    281.66984    20721    220944.32    13.347733     68.98117   -26.949653   -1.9883166    422.50665    23.551678    22.203806    6.7842756    429.29092    5446.1345   -23639.958 
  492700   -95915.234   -84247.162    283.38495    20721    221042.78   0.64921681    33.124652    226.92509   -258.10209    422.78993    23.549032    22.201312     6.642635    429.43256    5429.8145   -23647.765 
  492800   -95939.253   -84223.879    284.53379    20721     220886.9   -8.0223734      83.4167   -277.42891    169.94509    422.61778    23.545522    22.198002    6.7287102    429.34649    5443.7754   -23692.489 
  492900   -95822.904   -84227.694    281.61535    20721    220999.62   -18.064142    -91.19621    -125.1963    162.20008    422.89626    23.543773    22.196353    6.5894702    429.48573     5430.396   -23671.071 
  493000   -95850.491   -84186.535    283.28499    20721    220742.75     15.84643   -116.80114     176.5123   -12.171874    422.77362    23.533499    22.186667    6.6507919    429.42441    5422.7357   -23714.936 
  493100   -95809.845   -84238.954    281.02469    20721    220841.04   -51.825742   -29.310089    38.240649   -164.40779    422.98841     23.53276    22.185971     6.543397     429.5318    5450.2731   -23686.205 
  493200     -95749.5   -84243.515    279.44831    20721    220437.89    33.834851   -82.519885    104.69579    79.328652    422.78529    23.516918    22.171035    6.6449564    429.43024    5445.0042   -23693.961 
  493300    -95848.09   -84281.801    280.91291    20721    220536.27    18.436774    13.379524    125.02535   -83.094553    422.77347    23.522494    22.176292    6.6508651    429.42433    5467.8962   -23676.383 
  493400   -95923.084   -84292.877    282.46532    20721    220529.47   -93.097603   -77.329788   -20.396121    -181.5669    422.67859    23.524771    22.178439    6.6983034     429.3769    5463.7127   -23660.635 
  493500   -95961.983   -84279.901    283.72521    20721    220821.28   -26.380868   -5.5636722    61.378559   -134.95749    423.15293    23.527132    22.180665    6.4611337    429.61407    5477.9141   -23681.977 
  493600   -95959.122       -84297    283.24043    20721    220793.98    74.995052    22.486964     27.41214    175.08605    422.94588    23.531436    22.184723    6.5646612    429.51054     5484.542   -23677.284 
  493700   -95896.161   -84296.921    281.71322    20721    221192.94     -9.89479   -30.085357    202.21393   -201.81295    423.19537    23.545743     22.19821    6.4399146    429.63529    5489.5841   -23666.209 
  493800   -95774.897   -84265.316    279.53565    20721    221051.16    1.0910721    -151.9259   -64.845959    220.04508    422.94268    23.545226    22.197723    6.5662579    429.50894    5471.4023   -23686.268 
  493900   -95854.386   -84297.494    280.68471    20721    220614.33     9.792487    91.168445   -134.07313    72.282141    422.83571    23.524925    22.178584    6.6197456    429.45545    5496.1028   -23693.035 
  494000   -95843.262    -84283.28    280.75974    20721    221060.71    62.086968   -186.81104     206.9422    166.12975    423.19159    23.538809    22.191673    6.4418027     429.6334    5498.2768   -23703.054 
  494100   -95850.468    -84326.14    279.89382    20721    220990.72   -36.289498    77.230801   -202.32445    16.225154    423.36378    23.530296    22.183647    6.3557088    429.71949    5493.7074   -23654.515 
  494200   -95918.448   -84316.155    281.78738    20721    221084.56    40.937727    157.42621   -101.05335    66.440323    423.67479    23.526651    22.180211    6.2002056    429.87499     5490.914   -23664.643 
  494300   -95921.025   -84274.212    282.86865    20721     220964.3   -37.413206     57.66977   -173.29379    3.3844068    423.41562    23.527449    22.180963    6.3297888    429.74541    5481.9861    -23698.31 
  494400    -95989.98   -84364.903    282.34071    20721    220935.43    6.9201669   -68.446072    105.57761    -16.37104    423.37133    23.527142    22.180674    6.3519337    429.72327    5516.4286   -23648.871 
  494500   -95911.816   -84316.135    281.62679    20721    221093.21    57.529152    81.869376     124.9444   -34.226318    423.51858     23.53145    22.184735    6.2783101    429.79689    5511.1513   -23690.225 
  494600   -95854.039   -84289.822     280.8626    20721    221182.72     54.40469   -65.982637    124.96716    104.22955    423.43594    23.538509    22.191391      6.31963    429.75557    5481.5023   -23683.792 
  494700   -95869.146   -84342.902    279.94035    20721    220846.39   -131.07859   -115.17859   -273.24867   -4.8085133    422.73462    23.540108    22.192899    6.6702917    429.40491    5506.9705   -23661.226 
  494800   -95878.631    -84314.26    280.86634    20721     221209.8   -7.3964326    5.4910401     42.93695   -70.617287     423.2397    23.545407    22.197894    6.4177486    429.65745    5496.6425   -23676.753 
  494900   -95782.452   -84275.737    279.46604    20721     221162.2    55.021864    144.84217    73.467726   -53.244299    423.43056    23.537567    22.190502    6.3223216    429.75288     5492.203   -23716.617 
  495000   -95879.629   -84256.084    282.30351    20721    221159.13    -38.53134    88.657092    169.32531   -373.57642    423.56204     23.53375    22.186904    6.2565799    429.81862    5495.2792   -23735.747 
  495100   -95778.783   -84232.638    280.42369    20721    221076.29   -43.803521    47.933382   -4.9262439    -174.4177     423.6493    23.526919    22.180464     6.212951    429.86225    5482.7845   -23751.961 
  495200   -95921.114   -84231.081    283.91832    20721    221146.92   -47.791917    22.134952   -93.761043   -71.749659    424.00771    23.520729    22.174629    6.0337435    430.04146    5473.6856   -23744.171 
  495300   -95801.944   -84228.472    281.08738    20721    221139.09    59.680763   -20.367898    -114.5311    313.94129    423.63688    23.530605    22.183939    6.2191611    429.85604    5466.8513   -23747.278 
  495400   -95707.422   -84176.866    280.04508    20721    221239.08    71.936358    239.25981  -0.65791909   -22.792814     423.9162    23.528169    22.181643    6.0795022     429.9957    5462.0774   -23790.406 
  495500   -95908.724   -84221.509    283.84989    20721    221210.08    10.059386    20.375416     11.72433   -1.9215898     423.6984    23.532673    22.185889    6.1884009     429.8868    5459.0776   -23743.805 
  495600   -95867.206   -84247.186    282.21791    20721    221113.39     17.51056     63.16297    48.708532   -59.339821    423.40401    23.535707    22.188749     6.335596     429.7396    5459.1785   -23723.244 
  495700   -95873.452   -84204.484    283.40671    20721    220990.94   -5.3960376    161.81808   -262.20411    84.197916    423.41823    23.528794    22.182232    6.3284872    429.74671    5460.0209   -23770.825 
  495800   -95879.332   -84227.866    282.98164    20721    220770.64   -41.746217   -68.731492   -73.033264    16.526105    423.34843    23.519003    22.173001    6.3633867    429.71181    5457.4963   -23754.308 
  495900   -95772.154   -84144.886    282.39393    20721    221013.86    102.71885   -15.812745   -97.387084    421.35639    422.96843    23.542522    22.195174    6.5533851    429.52181     5446.301    -23823.35 
  496000   -95878.607   -84166.301    284.45927    20721    220791.74   -82.643386    75.040584   -57.884629   -265.08611    423.25515    23.522718    22.176503    6.4100261    429.66517    5452.0529   -23810.376 
  496100   -95823.634   -84164.076    283.17818    20721    220796.46    64.478367   -67.928572    66.153295    195.21038    422.95285    23.531374    22.184664    6.5611767    429.51402    5458.5337   -23828.336 
  496200   -95754.201   -84176.628    281.18697    20721     221074.1    22.194015   -2.7598699    132.19859   -62.856679    423.36818    23.534612    22.187717    6.3535113    429.72169    5466.4499    -23809.38 
  496300   -95735.689   -84171.663    280.85797    20721    221189.95   -1.2674692    114.52617    37.317893   -155.64648    423.63889    23.533255    22.186437    6.2181572    429.85704    5458.0697   -23802.723 
  496400   -95836.851   -84160.764    283.57962    20721    221096.81    11.131296   -22.540666   -128.61774    184.55229    423.65093    23.527965    22.181451    6.2121335    429.86307    5469.7437   -23831.019 
  496500   -95879.604   -84193.846    283.81448    20721    220947.43    128.96005    154.53712    299.68873   -67.345706    423.35171    23.528326    22.181791    6.3617443    429.71346    5477.4397   -23818.966 
  496600   -95853.353   -84173.322     283.6754    20721    221038.54   -3.6654244   -41.073547    160.55667    -130.4794    423.40327    23.531744    22.185013    6.3359628    429.73924    5470.1224   -23824.553 
  496700   -95767.584   -84084.728    283.74402    20721    221024.27   -81.870847   -167.77971   -92.619428    14.786591    423.11912    23.538884    22.191744    6.4780379    429.59716    5445.1783   -23885.259 
  496800   -95708.641   -84053.217    283.07777    20721    221271.64   -8.4698336   -49.332067   -64.342643    88.265209    423.53314    23.540538    22.193304    6.2710285    429.80417    5456.7171   -23924.487 
  496900   -95852.072   -84120.203     284.9344    20721    220805.56   -88.716051   -130.23308   -347.30465    211.38958    422.82949    23.535292    22.188357    6.6228531    429.45235    5480.0293   -23895.955 
  497000   -95760.283   -84127.202    282.53514    20721     220946.3    46.329627   -88.688267    27.346923    200.33023    422.88155    23.541342    22.194061    6.5968253    429.47837    5503.4391   -23913.813 
  497100   -95665.307   -84090.506    281.11966    20721    221342.19    15.632987    5.0125325   -132.20672    174.09314    423.03832    23.558056    22.209819    6.5184381    429.55676    5491.9878   -23925.256 
  497200    -95695.95   -84104.125    281.53312    20721    220947.16    6.8391856    32.001916   -189.43292    177.94856    423.06258     23.53635    22.189355    6.5063084    429.56889    5468.8625   -23901.454 
  497300   -95761.044   -84091.295    283.42568    20721    221060.92   -96.423164   -216.15399   -271.12357    198.00807     423.0271    23.543396    22.195998    6.5240483    429.55115    5481.4712   -23922.181 
  497400   -95832.458   -84140.176    283.97294    20721    221147.16   -76.878104   -100.48374    317.44374   -447.59431     423.7149    23.528868    22.182301    6.1801496    429.89505     5496.585   -23888.839 
  497500   -95704.486   -84119.543    281.36598    20721    220994.71    5.5581639    64.858196    137.36354   -185.54725     423.5051    23.526582    22.180146     6.285051    429.79015    5481.6569   -23905.299 
  497600   -95770.127   -84148.607    282.25433    20721    220889.65     18.28337   -103.71731    95.505699    63.061716     423.2703    23.527512    22.181023    6.4024521    429.67275    5494.5142   -23894.425 
  497700   -95627.224   -84086.038    280.30325    20721    221049.33    4.4914269    100.50143    124.91735    -211.9445    423.51399    23.529242    22.182654    6.2806035     429.7946    5481.0344   -23937.671 
  497800   -95768.172    -84119.19    282.92131    20721    221033.01   -19.359623    161.26143   -369.71893    150.37863    423.71623    23.522758    22.176541    6.1794846    429.89572    5500.3024    -23924.03 
  497900   -95720.902   -84137.703    281.32361    20721    220774.45   -53.561778    12.305556    44.077457   -217.06835     423.6323    23.511324    22.165762    6.2214491    429.85375    5494.1184   -23911.692 
  498000   -95890.925   -84167.066    284.73985    20721    220587.51    -150.1003    148.25741    -229.0587    -369.4996    423.67301    23.500239    22.155311    6.2010968     429.8741    5503.1621   -23895.769 
  498100   -95719.892   -84182.061    280.22177    20721    220880.42    2.6042459    100.30254    217.46849    -309.9583    424.05421    23.505264    22.160049    6.0104932    430.06471     5508.562   -23883.607 
  498200   -95788.421   -84203.568    281.36378    20721    220925.63   -55.745274    -51.17425     17.36627   -133.42784     423.6115     23.51995    22.173894    6.2318516    429.84335      5522.14   -23874.798 
  498300   -95772.735    -84196.17    281.16252    20721    221055.96    -81.01665   -60.880707    -212.6453    30.476053     423.4009    23.532737    22.185949    6.3371523    429.73805    5532.9359   -23891.067 
  498400   -95833.314   -84151.972    283.70724    20721     220959.8    125.02528    62.940005   -158.69878    470.83463    423.82314    23.515895    22.170071    6.1260305    429.94917    5528.9772   -23945.684 
  498500   -95811.152   -84205.963     281.8577    20721     221013.9   -6.6099712    149.50433   -67.375902   -101.95834    423.89218    23.516859    22.170979    6.0915081    429.98369    5541.2215   -23896.915 
  498600   -95813.623   -84193.592    282.21818    20721     220850.8    152.03314    13.891392    321.76868    120.43935    423.76999    23.511568    22.165992    6.1526035     429.9226    5546.2889   -23929.571 
  498700   -95720.197   -84130.262    281.48722    20721    220858.14   -120.18684   -189.83161   -66.828149   -103.90077    423.27933    23.525583    22.179204     6.397934    429.67727    5542.8718   -23977.796 
  498800   -95656.625    -84077.24    281.23099    20721    220851.34    20.365363   -137.45597    43.260783    155.29128    423.54875    23.517737    22.171808     6.263227    429.81197    5522.9859   -24020.524 
  498900   -95725.187   -84147.093    281.19965    20721    220611.05   -41.302285    85.608029   -207.16895   -2.3459316    423.36853    23.509942    22.164459     6.353337    429.72186    5540.2997    -23978.57 
  499000   -95717.996   -84181.055    280.20015    20721    220914.19   -75.093017   -105.49118    -81.42966   -38.358211    423.72689    23.516138      22.1703    6.1741528    429.90105    5529.1666    -23923.61 
  499100   -95801.338   -84196.386    281.85195    20721    220876.91    33.747891    68.943995   -70.892191    103.19187    423.66308    23.515925    22.170099    6.2060594    429.86914    5541.1636   -23927.352 
  499200    -95650.09   -84133.753    279.69973    20721     221075.6    3.3293717   -76.625298    72.966406    13.647007    423.76321     23.52372    22.177448    6.1559965     429.9192    5540.1007   -23980.448 
  499300   -95795.681   -84116.904    283.64495    20721    221082.18    -100.6778   -293.02353     96.15459   -105.16445    423.92063    23.519701     22.17366    6.0772861    429.99791    5531.9841   -23987.178 
  499400   -95741.547   -84163.705    281.19351    20721    221007.82    113.16456    27.740187    140.23567    171.51783    423.80839    23.518859    22.172866    6.1334035     429.9418    5569.9119   -23991.007 
  499500   -95858.487   -84172.002    283.83214    20721    220994.45   -98.031567   -16.903181   -368.16615     90.97463     423.4654    23.527671    22.181173    6.3049011     429.7703    5562.9935   -23969.326 
  499600   -95717.213    -84127.44     281.4833    20721    220949.41    80.394427    213.31362    284.74754   -256.87787    423.19466    23.532797    22.186006    6.4402692    429.63493    5558.5922   -24021.687 
  499700   -95801.247   -84044.181    285.54636    20721    220917.34    27.993985    25.373233    186.31022    -127.7015    422.96166    23.537569    22.190505    6.5567715    429.51843    5543.6135   -24090.254 
  499800   -95665.949   -84107.365     280.7258    20721    220753.71   -116.04273   -60.077842   -240.87017   -47.180178    422.96623    23.528724    22.182166    6.5544826    429.52072    5549.8754   -24030.902 
  499900   -95763.214   -84144.709    282.18111    20721    220966.32    22.535213   -92.596111    255.03722   -94.835472     423.2588    23.531914    22.185173    6.4081985      429.667    5560.2573   -24007.357 
  500000   -95692.979   -84116.357    281.16388    20721    221082.66   -77.473269     5.027862   -172.79558   -64.652092    423.43486    23.533215    22.186399    6.3201702    429.75503    5559.2919   -24024.537 
Loop time of 72032.9 on 32 procs for 500000 steps with 20721 atoms

Performance: 1.199 ns/day, 20.009 hours/ns, 6.941 timesteps/s
97.4% CPU use with 32 MPI tasks x no OpenMP threads

MPI task timing breakdown:
Section |  min time  |  avg time  |  max time  |%varavg| %total
---------------------------------------------------------------
Pair    | 13527      | 14642      | 16471      | 822.6 | 20.33
Bond    | 0.82763    | 0.92349    | 1.4811     |  11.6 |  0.00
Kspace  | 13961      | 15795      | 16909      | 793.4 | 21.93
Neigh   | 10681      | 12957      | 14881      |1596.8 | 17.99
Comm    | 589.17     | 1858.2     | 4731.2     |2745.2 |  2.58
Output  | 5.5552     | 32.705     | 43.288     | 207.6 |  0.05
Modify  | 25336      | 26659      | 30040      | 902.4 | 37.01
Other   |            | 88.74      |            |       |  0.12

Nlocal:    647.531 ave 694 max 599 min
Histogram: 2 1 3 10 5 0 3 1 1 6
Nghost:    7295.06 ave 7843 max 6905 min
Histogram: 6 5 5 4 0 1 2 3 2 4
Neighs:    238227 ave 271415 max 214046 min
Histogram: 3 4 12 2 0 1 2 2 1 5
FullNghs:  476457 ave 544072 max 427451 min
Histogram: 3 4 12 2 0 0 3 2 2 4

Total # of neighbors = 15246619
Ave neighs/atom = 735.805
Ave special neighs/atom = 2
Neighbor list builds = 500000
Dangerous builds not checked
write_data production.R1
PPPM initialization ...
  extracting TIP4P info from pair style
WARNING: Using 12-bit tables for long-range coulomb (../kspace.cpp:316)
  G vector (1/distance) = 0.345903
  grid = 400 48 48
  stencil order = 5
  estimated absolute RMS force accuracy = 0.000401979
  estimated relative force accuracy = 1.21055e-06
  using double precision FFTs
  3d grid and FFT values/proc = 67260 38400
write_restart restartproduction.R1
PPPM initialization ...
  extracting TIP4P info from pair style
WARNING: Using 12-bit tables for long-range coulomb (../kspace.cpp:316)
  G vector (1/distance) = 0.345903
  grid = 400 48 48
  stencil order = 5
  estimated absolute RMS force accuracy = 0.000401979
  estimated relative force accuracy = 1.21055e-06
  using double precision FFTs
  3d grid and FFT values/proc = 67260 38400
Total wall time: 20:00:33
