LAMMPS (30 Jul 2016)
# Sets up LAMMPS simulation for transient melting of ice: TIP4P/Ice
# Ensure cold thermostats do not move
# Thinbox: 16x1x1
# Defects
# Order param l=2

#### setting MD parameters ####
units real
boundary p p p
atom_style full

# read ice box in restart file
#read_data ice-ih-restart.data
read_restart restart.state
  orthogonal box = (0.423882 0.0228733 0.0215642) to (435.651 23.5083 22.1629)
  32 by 1 by 1 MPI processor grid
  20736 atoms
  13824 bonds
  6912 angles
  2 = max # of 1-2 neighbors
  1 = max # of 1-3 neighbors
  1 = max # of 1-4 neighbors
  2 = max # of special neighbors

#replicate 16 boxes, 16x1x1


#### force field definition ####
pair_style      lj/cut/tip4p/long 2 1 1 1 0.1577 10.0
pair_modify	tail yes

kspace_style	pppm/tip4p 1.0e-6

bond_style	harmonic
angle_style	harmonic
dihedral_style	none
improper_style	none

bond_coeff	1 450.0 0.9572
angle_coeff	1 55.0 104.52


# reset pair coeff
pair_coeff	* * 0.0 0.0

#OO
pair_coeff	2 2 0.21085 3.1668
#OH
pair_coeff	* 1 0.0000 0.0000

neighbor        2.0 bin
neigh_modify    every 1 delay 1 check no

timestep	2.0
fix		constraints all shake 0.000001 20 0 b 1 a 1
  0 = # of size 2 clusters
  0 = # of size 3 clusters
  0 = # of size 4 clusters
  6912 = # of frozen angles

group water type 1 2
20736 atoms in group water

#*********** SIMULATION PARAMETER TO ADJUST ****************
#Box dimensions
variable lx equal lx
variable ly equal ly
variable lz equal lz

### Temperature of the hot and cold regions ####
variable thi equal 375
variable tlo equal 215
variable runpressure equal 0.986923
# Configuration equilibrated in density and temperature

# Define dx here

variable lx equal lx
variable ly equal ly
variable lz equal lz

variable xlo equal xlo
variable xhi equal xhi


variable dx equal 2.0

### ADD IN DEFECTS AT THE CENTRE OF THE HOT THERMOSTAT ###
variable x1 equal ${lx}/4.0
variable x1 equal 435.22743545728/4.0
variable y1 equal ${ly}/2.0
variable y1 equal 23.485453493417/2.0
variable z1 equal ${lz}/2.0
variable z1 equal 22.1413715843101/2.0

region kill1 sphere ${x1} ${y1} ${z1} 3
region kill1 sphere 108.80685886432 ${y1} ${z1} 3
region kill1 sphere 108.80685886432 11.7427267467085 ${z1} 3
region kill1 sphere 108.80685886432 11.7427267467085 11.0706857921551 3
delete_atoms region kill1 compress no bond yes mol yes
Deleted 15 atoms, new total = 20721
Deleted 10 bonds, new total = 13814
Deleted 5 angles, new total = 6907




variable thip equal ${thi}*2.0/3.0
variable thip equal 375*2.0/3.0
variable tlop equal ${tlo}*2.0/3.0
variable tlop equal 215*2.0/3.0
variable cbl equal ${lx}*3.0/4.0-${dx}
variable cbl equal 435.22743545728*3.0/4.0-${dx}
variable cbl equal 435.22743545728*3.0/4.0-2
variable cbh equal ${lx}*3.0/4.0+${dx}
variable cbh equal 435.22743545728*3.0/4.0+${dx}
variable cbh equal 435.22743545728*3.0/4.0+2
variable hbl equal ${lx}*1.0/4.0-${dx}
variable hbl equal 435.22743545728*1.0/4.0-${dx}
variable hbl equal 435.22743545728*1.0/4.0-2
variable hbh equal ${lx}*1.0/4.0+${dx}
variable hbh equal 435.22743545728*1.0/4.0+${dx}
variable hbh equal 435.22743545728*1.0/4.0+2


#***************************************************
## EQUILIBRATION PERIOD - to reach the steady state ###
#run 0

#reset the timestep to start your production run
reset_timestep 0

# define a group to perform averages
#group s1 type 1
###*** SYSTEM THERMOSTATTING: HOT and COLD regions ***###

fix NVE all nve
fix PRESS all press/berendsen aniso ${runpressure} ${runpressure} 500000 couple yz
fix PRESS all press/berendsen aniso 0.986923 ${runpressure} 500000 couple yz
fix PRESS all press/berendsen aniso 0.986923 0.986923 500000 couple yz


### Apply THERMOSTATS ###

#set up the "hot region" in the middle of the box
region hot block ${hbl} ${hbh} 0 ${ly} 0 ${lz} units box
region hot block 106.80685886432 ${hbh} 0 ${ly} 0 ${lz} units box
region hot block 106.80685886432 110.80685886432 0 ${ly} 0 ${lz} units box
region hot block 106.80685886432 110.80685886432 0 23.485453493417 0 ${lz} units box
region hot block 106.80685886432 110.80685886432 0 23.485453493417 0 22.1413715843101 units box


#set up the "cold region" at the left end of the box
region cold block ${cbl} ${cbh} 0 ${ly} 0 ${lz} units box
region cold block 324.42057659296 ${cbh} 0 ${ly} 0 ${lz} units box
region cold block 324.42057659296 328.42057659296 0 ${ly} 0 ${lz} units box
region cold block 324.42057659296 328.42057659296 0 23.485453493417 0 ${lz} units box
region cold block 324.42057659296 328.42057659296 0 23.485453493417 0 22.1413715843101 units box

#set up the "cold region" at the right end of the box
#region cold2 block ${h2bl} ${xhi} 0 ${ly} 0 ${lz} units box


#Cold regions  unification
#region cold union 2 cold1 cold2 units box

#Create group of cold molecules
####group cool_ice region cold
####group cool_ice include molecule

####compute cold_temp cool_ice temp
####fix cold_rescale water temp/rescale 1 ${tlo} ${tlo} 0.0001 1.0
####fix_modify cold_rescale temp cold_temp

#this calculates the temperature using only the atoms in the "hot region"
#compute hot_temp all temp/region hot

# calculate the temperature using only WATER in the "hot region"
compute hot_temp water temp/region hot

#this calculates the temperature using only WATER in the "cold region"
compute cold_temp water temp/region cold


#set up a basic velocity rescale for the hot region WATER with thip
fix hot_rescale water temp/rescale 1 ${thip} ${thip} 1.0 1.0
fix hot_rescale water temp/rescale 1 250 ${thip} 1.0 1.0
fix hot_rescale water temp/rescale 1 250 250 1.0 1.0
#change the thermostat to only act on the "hot region"
#this is done by passing it the "hot temp" compute that we defined above
fix_modify hot_rescale temp hot_temp

#set up a basic velocity rescale for the cold region
fix cold_rescale water temp/rescale 1 ${tlop} ${tlop} 1.0 1.0
fix cold_rescale water temp/rescale 1 143.333333333333 ${tlop} 1.0 1.0
fix cold_rescale water temp/rescale 1 143.333333333333 143.333333333333 1.0 1.0
#change the thermostat to only act on the "cold region"
#this is done by passing it the "cold temp" compute that we defined above
fix_modify cold_rescale temp cold_temp

### Ensure MOMENTUM CONSERVATION ###

#ensure that linear momentum is conserved despite the "thermostatting" by velocity rescaling
fix cons_mom all momentum 1 linear 1 1 1


thermo 100
thermo_style custom step pe etotal temp atoms vol press pxx pyy pzz lx ly lz xlo xhi f_cold_rescale f_hot_rescale

group ox type 2
6907 atoms in group ox
group hy type 1
13814 atoms in group hy
compute KE all ke/atom
variable TEMP atom c_KE*4186.8/(1.3806488*6.02214129)

compute cc1 all chunk/atom bin/1d x center 2 units box
#fix TPROFILE all ave/chunk 1 500 500 cc1 v_TEMP density/number file temp.dat
fix TPROFILEox ox ave/chunk 1 500 500 cc1 v_TEMP density/number file temp-ox.dat
fix TPROFILEhy hy ave/chunk 1 500 500 cc1 v_TEMP density/number file temp-hy.dat

compute orderparam ox orientorder/atom degrees 1 2 nnn 4 cutoff 3.5
compute cc2 ox chunk/atom bin/1d x center 2 units box
#fix ORDERPARAM all ave/chunk 1 500 500 cc2 c_orderparam[1] file order-param.dat
fix ORDERPARAM all ave/chunk 1 500 500 cc2 c_orderparam[1] file order-param.dat

restart 50000 config.restart

run 500000
PPPM initialization ...
  extracting TIP4P info from pair style
WARNING: Using 12-bit tables for long-range coulomb (../kspace.cpp:316)
  G vector (1/distance) = 0.345598
  grid = 405 48 48
  stencil order = 5
  estimated absolute RMS force accuracy = 0.000405984
  estimated relative force accuracy = 1.22261e-06
  using double precision FFTs
  3d grid and FFT values/proc = 67260 38880
Neighbor list info ...
  2 neighbor list requests
  update every 1 steps, delay 1 steps, check no
  max neighbors/atom: 2000, page size: 100000
  master list distance cutoff = 12.3154
  ghost atom cutoff = 12.3154
  binsize = 6.1577 -> bins = 71 4 4
Memory usage per processor = 12.7663 Mbytes
Step PotEng TotEng Temp Atoms Volume Press Pxx Pyy Pzz Lx Ly Lz Xlo Xhi cold_res hot_resc 
       0   -103719.46    -94898.16    214.24471    20721    226318.33   -8.9559116    64.076809   -59.976992   -30.967553    435.22744    23.485453    22.141372   0.42388227    435.65132            0            0 
     100   -103678.33   -94666.466    218.87296    20721    226414.53    15.271289    32.906475    51.969253   -39.061859     435.4047    23.485662    22.141568   0.33524853    435.73995    25.413076   -258.25439 
     200   -103649.31   -94618.594    219.33099    20721    226175.35    -59.90231   -55.316139   -213.39499      89.0042     435.0946    23.481617    22.137755   0.49029782     435.5849    17.109584   -302.11005 
     300   -103618.24   -94554.203    220.14012    20721    226457.13    3.1410848    79.532996   -72.404194    2.2944522    435.21679    23.492941    22.148431   0.42920458      435.646    16.609095   -359.96444 
     400   -103651.99   -94523.857     221.6969    20721    226442.44   -81.919659    3.4222545    -98.12048   -151.06075    435.41457    23.486843    22.142682    0.3303135    435.74489    29.947797    -401.2858 
     500   -103497.14   -94459.943    219.48825    20721    226533.98    125.68286    99.907203    342.45349   -65.312111    435.33483    23.493742    22.149185   0.37018744    435.70501    43.790086   -486.06725 
     600   -103416.61   -94412.037    218.69591    20721    226159.36   -21.908793    48.553209    74.399139   -188.67873    435.31826    23.474754    22.131285    0.3784686    435.69673    35.926113   -529.34882 
     700   -103570.03   -94412.892    222.40135    20721    226584.71    1.6230682    104.66447   0.62699149   -100.42226    435.56166    23.490253    22.145896   0.25677209    435.81843    43.313443   -531.26477 
     800   -103385.51   -94383.752    218.62753    20721    226375.92    32.804661    116.41268   -7.8339085   -10.164784    435.32382    23.485841    22.141737    0.3756876    435.69951     24.46778   -547.43683 
     900   -103448.35   -94332.458    221.39969    20721    226431.27    -29.27274   -75.722827    6.7859492   -18.881342    435.39947    23.486671     22.14252   0.33786621    435.73733    22.716272   -591.86504 
    1000   -103551.24   -94323.799    224.10875    20721    226376.35    -81.50189   -151.81518    100.57789   -193.26838    435.46349    23.482096    22.138206   0.30585341    435.76935    26.502307   -607.51046 
    1100   -103399.82   -94297.913    221.05997    20721    226452.64    57.971344    116.04125    -73.79849    131.67127    435.26274    23.491468    22.147042   0.40623173    435.66897    30.819433   -641.26812 
    1200   -103367.58   -94236.483    221.76882    20721    226334.26   -31.931905     80.06836    -192.0658    16.201725     435.2715    23.485091     22.14103   0.40185063    435.67335    11.496424   -681.77041 
    1300   -103419.11   -94208.711    223.69495    20721    226313.54   -66.402532    77.639694   -159.94511   -116.90218    435.33358    23.482341    22.138438   0.37080976    435.70439    10.033358   -708.63498 
    1400   -103359.49   -94210.991    222.19157    20721    226512.23    4.9527705   -1.9706957    30.792435   -13.963428    435.34686    23.492289    22.147816   0.36417075    435.71103    27.770562   -722.64689 
    1500   -103324.41   -94181.759    222.04956    20721    226444.85   -1.4589329   -5.8243795    18.848952   -17.401372    435.29228    23.490267     22.14591   0.39145952    435.68374    29.618289   -756.59149 
    1600   -103398.89   -94133.128    225.03947    20721    226497.13    73.800295    40.300943   -6.4047092    187.50465    435.33716    23.491768    22.147324   0.36902034    435.70618    31.559323   -810.45863 
    1700   -103364.79   -94121.913    224.48374    20721    226334.79   -25.972611    292.98655   -182.03751   -188.86687    435.26585    23.485271    22.141199   0.40467574    435.67052    27.485325   -818.63263 
    1800    -103263.4   -94053.252    223.68881    20721    226552.92   -13.026221     119.2009   -160.49551    2.2159461    435.32887    23.494884    22.150263    0.3731636    435.70204    20.952552   -875.06276 
    1900   -103228.58   -94042.873    223.09527    20721    226557.32    55.581881    199.28771    22.158853   -54.700919    435.18365    23.499032    22.154173   0.44577421    435.62943    18.412044   -886.91524 
    2000   -103208.74   -93984.647    224.02759    20721    226597.77    1.0542158    112.83596   -14.910093   -94.763221    435.43151     23.49444    22.149844   0.32184297    435.75336   -14.193264   -910.80753 
    2100   -103242.76   -93994.949    224.60357    20721    226567.15   -37.380309    11.972881     -196.041    71.927196    435.26664    23.497302    22.152542   0.40428148    435.67092    11.437031   -927.14786 
    2200   -103189.76   -93941.635     224.6111    20721    226712.02   0.95540755   -184.94594   -54.029883    241.84205    435.33659    23.502924    22.157843   0.36930723    435.70589   -1.7596213   -964.79357 
    2300   -103198.86   -93919.234    225.37635    20721     226682.6    39.257882    41.789175    89.599862   -13.615391    435.28315    23.502842    22.157765   0.39602677    435.67917    14.709936   -1006.7353 
    2400   -103166.23   -93934.985    224.20126    20721    226565.05    -7.103622    140.41567   -64.022613   -97.703927    435.38584    23.493976    22.149406   0.34467811    435.73052     14.16334   -991.24683 
    2500   -103118.13     -93892.6    224.06248    20721    226576.92   -8.9772501    34.797586    61.142328   -122.87166    435.10729    23.502111    22.157076   0.48395592    435.59124    12.625812   -1034.5084 
    2600   -103199.15   -93862.719    226.75594    20721    226407.73    31.566283      288.436   -87.480767   -106.25638    434.96727    23.497115    22.152366   0.55396292    435.52124   -22.483067   -1036.0027 
    2700   -103136.93   -93815.377    226.39444    20721    226488.54   -48.840181   -26.920071    134.63572   -254.23619    435.01361    23.500056    22.155139   0.53079285    435.54441   -7.6184528   -1093.3013 
    2800   -103209.53   -93858.935    227.09998    20721    226587.48   -87.114034   -82.272117   -106.29596   -72.774024    435.11326    23.502497     22.15744   0.48096892    435.59423      9.60894   -1061.8053 
    2900   -103172.06   -93840.942    226.62675    20721    226386.57   -66.312771   -113.93161   -46.591467   -38.415232    435.16892    23.490573    22.146198   0.45314226    435.62206   -4.1024686   -1074.2471 
    3000   -103190.67   -93831.553    227.30684    20721    226565.28    16.838864   -88.440406   -66.404738    205.36174    435.15155    23.500312     22.15538   0.46182652    435.61337   -14.942718    -1073.265 
    3100   -103053.05   -93812.238    224.43357    20721    226415.68    46.638209    91.686779    229.57704   -181.34919    435.08262    23.494413    22.149818      0.49629    435.57891   -8.4867834   -1105.3016 
    3200   -103068.18   -93751.614    226.27331    20721    226427.93    36.725706    169.72696    96.536078   -156.08592    435.02793    23.496525     22.15181   0.52363472    435.55157   -12.360857   -1160.0771 
    3300   -103193.56   -93816.689    227.73809    20721    226512.31   -26.499472     72.25019   -66.734827    -85.01378    435.24613    23.495011    22.150383   0.41453473    435.66067    17.496727   -1122.2009 
    3400   -103190.23   -93798.891    228.08934    20721    226406.23   -31.621253    -46.28564    110.56519   -159.14331    435.38125    23.485864    22.141758   0.34697607    435.72822    15.394991    -1140.564 
    3500   -103102.22   -93720.856    227.84708    20721    226496.76   -51.018433   -125.76882    151.44691   -178.73339    435.29397    23.492914    22.148405   0.39061574    435.68458    14.041125   -1216.4993 
    3600   -103133.28     -93738.2    228.18023    20721    226531.39   -9.4859005   -38.458864   -175.70283    185.70399    435.32899    23.493764    22.149207   0.37310333     435.7021    5.3040122    -1191.494 
    3700   -103043.87   -93713.375     226.6118    20721    226389.17    18.870851  0.058513587       167.33   -110.77596     435.1349    23.491626    22.147191   0.47015086    435.60505    10.453441   -1226.6798 
    3800    -103030.9   -93739.038    225.67347    20721    226465.45    33.416444  -0.20526511   -8.7320917    109.18669    435.32697      23.4904    22.146035   0.37411654    435.70108    6.5191283   -1193.7056 
    3900   -103057.73   -93715.645    226.89325    20721    226463.87    30.250212    41.379216   -149.72167    199.09309    435.21152    23.493433    22.148895   0.43184224    435.64336    21.778694   -1234.7218 
    4000      -103166   -93720.298     229.4097    20721    226535.07   -68.528231     7.401187    59.592042   -272.57792    435.26998    23.495548    22.150888   0.40261009    435.67259    20.763818   -1224.6657 
    4100   -103074.58   -93689.259    227.94324    20721    226447.05    8.7387321   -131.19444    192.32767   -34.917035    435.15502    23.494086     22.14951   0.46009074    435.61511    10.767246   -1253.0357 
    4200    -102976.9   -93633.506    226.92499    20721    226563.84   -6.9455862    136.70196   -72.097766   -85.440953    435.37153      23.4943    22.149712   0.35183636    435.72336   -11.472302   -1281.1399 
    4300   -103076.95   -93615.567    229.79056    20721    226565.13   -18.478538   -35.278606   -203.83856    183.68155    435.08637    23.502065    22.157032   0.49441476    435.58079    9.8013356   -1324.4857 
    4400   -102982.29   -93614.346    227.52135    20721    226536.13    12.790826    7.2362301   -246.73065     277.8669    435.18884    23.497794    22.153005   0.44318178    435.63202   -8.0560496   -1308.7234 
    4500   -103088.68   -93659.161    229.01661    20721    226503.63   -38.031199    56.885822    84.361039   -255.34046    435.12693    23.497779    22.152992   0.47413685    435.60106    30.607073   -1301.5145 
    4600   -102978.48   -93613.447    227.45048    20721    226394.27   -52.025978    -103.2834    85.524817   -138.31935    435.28611     23.48781    22.143593   0.39454656    435.68065    21.305751   -1340.3867 
    4700   -103033.31   -93618.032    228.67087    20721    226479.97   -5.7785502    97.932454   -131.51076    16.242654    435.28707    23.492229     22.14776   0.39406309    435.68114    32.947836   -1349.4211 
    4800   -103008.61   -93609.694    228.27352    20721    226588.61    96.613242    86.741264    36.399439    166.69903    435.15777    23.501354    22.156362   0.45871362    435.61649     26.18823   -1352.9178 
    4900   -103046.98   -93583.349    229.84517    20721    226561.68   -56.381083   -55.371884    -15.65379   -98.117575    435.42246    23.492813     22.14831   0.32636769    435.74883    14.977005   -1364.0993 
    5000   -102937.69   -93570.576    227.50111    20721    226452.17    27.823385    59.614645   -127.64743    151.50294    435.19966    23.493146    22.148624    0.4377677    435.63743    20.577634   -1389.5537 
    5100   -102967.85   -93532.465    229.15928    20721    226562.49    9.1715749    20.182691   -161.47659    168.80862     435.2206    23.498303    22.153486   0.42729827     435.6479    7.4674063   -1411.6465 
    5200   -103033.98   -93519.146     231.0887    20721     226675.6    11.632505   -51.042686    53.580549    32.359653    435.27933    23.502582     22.15752   0.39793395    435.67727     13.90704   -1428.8352 
    5300   -102934.84   -93512.133    228.85126    20721    226667.22   -19.912656   -188.14854    56.869997    71.540574    435.21176    23.503972     22.15883   0.43171828    435.64348    15.192092   -1436.0224 
    5400   -102988.09   -93528.027    229.75857    20721    226679.69   -70.988704    187.17517   -68.083673   -332.05761    435.35197    23.500833    22.155871   0.36161452    435.71359    18.314114   -1420.8748 
    5500   -102990.61   -93502.284    230.44495    20721    226612.87   -41.087348   -102.59138   -12.855284   -7.8153825    435.31465    23.498377    22.153555   0.38027699    435.69492    18.930976   -1453.1912 
    5600   -103049.82   -93480.429    232.41394    20721    226675.84   -35.861918    26.615548   -22.322464   -111.87884    435.30826    23.501814    22.156796   0.38346902    435.69173    17.539056   -1473.2694 
    5700   -102890.63   -93466.876    228.87665    20721    226623.33    1.3102229    118.81042   -13.224134   -101.65561    435.19718     23.50209    22.157056   0.43901249    435.63619    13.282684    -1485.977 
    5800   -102991.88   -93478.426    231.05538    20721    226704.69    17.823717    66.349322    32.921358   -45.799529    435.40392    23.500727    22.155771   0.33564128    435.73956    18.507144   -1479.3028 
    5900   -102907.82   -93483.961    228.87936    20721    226563.18    71.240378   -81.471732    143.46216     151.7307    435.16802    23.499758    22.154858   0.45359024    435.62161    29.379817     -1491.34 
    6000    -102914.2   -93470.742    229.35537    20721    226823.68    83.166865    101.41056    69.031074    79.058965    435.29714    23.509777    22.164303   0.38902885    435.68617    36.610288    -1506.727 
    6100   -102897.29   -93464.869    229.08728    20721    226628.79    44.323551    3.3176243    -61.14778    190.80081    435.27329    23.500319    22.155386   0.40095477    435.67425    31.646717   -1510.1984 
    6200    -102984.5   -93483.409    230.75493    20721    226687.18   -49.029817   -138.25468    -140.5498    131.71503    435.17593    23.505975    22.160718   0.44963595    435.62556    41.468174   -1497.5425 
    6300   -102941.16   -93417.039    231.31436    20721    226585.63   -27.887643   -87.154672   -211.80118    215.29293    435.20872    23.499824    22.154919   0.43324002    435.64196    4.7449625     -1532.43 
    6400   -102917.46   -93449.682    229.94583    20721    226735.55    19.448834     33.15746    125.23943   -100.05039    435.43689    23.501437     22.15644   0.31915346    435.75605    15.384518   -1507.8786 
    6500   -102869.55   -93422.944    229.43184    20721    226634.87    13.995133    98.903766    43.439657   -100.35802    435.20452    23.502491    22.157434   0.43534159    435.63986    22.823693   -1547.4149 
    6600   -102931.95   -93362.584    232.41318    20721     226815.9    -55.10501    1.1365527    -62.07567   -104.37591    435.37283     23.50733    22.161996   0.35118472    435.72402     8.653687   -1585.7959 
    6700   -102895.07   -93350.891    231.80162    20721     226726.2    112.87201   -29.263832    46.533572     321.3463     435.1377     23.50903    22.163599   0.46875172    435.60645   -3.5309848   -1596.6475 
    6800   -102783.14    -93313.35    229.99482    20721    226775.02   -1.0059827    30.949995   -256.78761    222.81967    435.07147    23.513351    22.167672   0.50186384    435.57334    2.0748969      -1633.1 
    6900   -102815.05   -93319.548    230.61937    20721    226683.26  -0.91299193   -91.382167     424.2779   -335.63471    435.32648    23.501706    22.156694   0.37435993    435.70084    8.1202813   -1638.1563 
    7000   -102891.84   -93303.365    232.87731    20721    226826.75    -38.78141    91.751733    64.690734    -272.7867    435.27289    23.510591     22.16507   0.40115732    435.67404    1.1410037   -1642.5876 
    7100   -102873.16   -93281.576    232.95274    20721    226768.13    20.072092    50.643506    46.657007   -37.084236    435.14029    23.511134    22.165582   0.46745546    435.60774   -3.6186452   -1664.9685 
    7200   -102836.87    -93306.52    231.46576    20721    226555.03   -58.150639   -156.44937   -120.72344    102.72089    435.17002    23.499282    22.154408   0.45258942    435.62261   -11.203569   -1634.7962 
    7300   -102882.26   -93298.409    232.76511    20721    226748.49   -13.150823   -28.983494    214.37298   -224.84196    435.26715    23.506689    22.161392   0.40402308    435.67118   -13.523942   -1639.3525 
    7400    -102736.9   -93258.299    230.20868    20721    226758.86    64.648583    157.10726    69.755519   -32.917025    435.48341    23.501389    22.156395   0.29589323    435.77931   -36.887169   -1660.1952 
    7500   -102782.93   -93287.206    230.62468    20721    226763.64  -0.75611385     142.2081    212.23228   -356.70872    435.21272    23.508945    22.163518   0.43123929    435.64396    3.4731627    -1668.153 
    7600   -102897.02   -93292.085    233.27722    20721    226570.77    -46.78771     179.5155   -197.16911   -122.70952    435.29899    23.496616    22.151895   0.38810278     435.6871   -8.7040587   -1655.6742 
    7700    -102888.1   -93214.577    234.94289    20721    226590.47    42.561108    19.963954    48.380661    59.338708    435.18765    23.500643    22.155692   0.44377286    435.63143   -16.233012   -1732.7264 
    7800   -102774.72   -93221.128    232.03009    20721    226636.47    25.368384   -92.811308   -55.540003    224.45646    435.20182    23.502646     22.15758   0.43668907    435.63851   -1.1412342   -1739.2195 
    7900   -102842.19   -93228.589    233.48765    20721    226761.78    -40.47915    83.464425   -215.02637    10.124495    435.41083    23.503499    22.158385   0.33218661    435.74301    15.656155   -1744.3413 
    8000   -102808.43   -93250.607    232.13293    20721    226520.66   -34.770541   -30.712601   -167.20812    93.609099    435.29769    23.494053    22.149479   0.38875338    435.68645     18.71726   -1732.4791 
    8100      -102729   -93185.318    231.78951    20721    226715.88    20.582204    79.119928   -146.54008    129.16676    435.33121    23.503269    22.158168   0.37199259    435.70321     -13.9113   -1763.3646 
    8200   -102791.79   -93157.333    233.99417    20721    226734.19     28.30815    36.553746    97.229305   -48.858601    435.36095    23.503416    22.158306   0.35712464    435.71808   -22.883616   -1782.6878 
    8300   -102691.86   -93119.011    232.49787    20721    226738.01    61.324368   -35.120396   -50.286844    269.38034    435.37703     23.50318    22.158083   0.34908324    435.72612    -17.01275   -1828.7425 
    8400   -102742.68   -93143.112    233.14686    20721    226673.55    27.669312    38.560123    12.372478    32.075335    435.43406      23.4983    22.153483   0.32057055    435.75463   -7.3142911   -1815.3088 
    8500    -102812.5   -93064.422    236.75354    20721    226721.32    33.818337   -61.784221    320.21199   -156.97275     435.4455    23.500467    22.155526   0.31484851    435.76035   -29.815767   -1874.1142 
    8600   -102698.49   -93071.643    233.80935    20721    226896.19   -13.029243    94.344593    -60.79159    -72.64073    435.48734    23.508399    22.163003   0.29392912    435.78127   -34.958156   -1853.6827 
    8700   -102813.33       -93067    236.71116    20721    226746.93   -60.063422    115.01453   -171.20558   -123.99922     435.3624    23.504037    22.158892   0.35640122     435.7188   -16.144742   -1880.6423 
    8800   -102651.73   -93002.231    234.35947    20721    226728.46   -13.930511   -83.777032   -95.333833    137.31933      435.344    23.503577    22.158458   0.36560171     435.7096   -28.780185   -1933.9625 
    8900   -102745.03   -93023.705    236.10377    20721     226827.5   -3.9868447   -163.64222   -125.54867    277.23035    435.28517    23.510298    22.164794   0.39501647    435.68018   -22.861615   -1919.4331 
    9000   -102705.33   -92979.484    236.21379    20721    226799.38   -55.429298    83.596307    58.236171   -308.12037    435.53971     23.50197    22.156943   0.26774386    435.80746   -46.914511   -1938.8724 
    9100   -102759.43   -93008.192    236.83048    20721    226767.34     -4.63555    163.55853    69.018825     -246.484    435.58533    23.499079    22.154217   0.24493275    435.83027   -29.117337   -1933.9223 
    9200   -102670.04   -93052.671    233.57917    20721    226685.25    69.001877   -47.794714    156.27383    98.526509    435.26738    23.503405    22.158296    0.4039078    435.67129   -28.039102   -1894.1231 
    9300   -102675.08   -93010.069    234.73608    20721    226793.22    23.233207    144.17687    14.951577   -89.428825     435.3654    23.506355    22.161077   0.35490205     435.7203   -10.473584   -1950.3444 
    9400   -102734.64   -93001.968     236.3794    20721    226811.05   -17.834703    -238.4563    175.88688    9.0653129    435.50412    23.503535    22.158418   0.28553958    435.78966   -1.7610571   -1969.1696 
    9500   -102666.76    -92978.73     235.2953    20721    226776.44     63.55841    -76.61571    43.311886    223.97906    435.42959    23.503753    22.158624   0.32280399     435.7524   -25.585821   -1972.8111 
    9600   -102702.74   -93001.861    235.60736    20721    226782.83   -8.8601682   -76.746245   -9.8571135    60.022854    435.25613    23.508767    22.163351   0.40953415    435.66567    -3.049214    -1971.336 
    9700   -102642.37   -92944.175    235.54205    20721    226855.16 -0.053760198    95.491523   -85.418236   -10.234568    435.34396    23.510144    22.164649   0.36562065    435.70958   -26.233339   -2002.9541 
    9800   -102667.53   -92972.667    235.46112    20721     226905.9    3.7491557    35.377439   -109.62983    85.499855    435.50989    23.508293    22.162904   0.28265747    435.79254   -15.170103   -1983.9742 
    9900    -102596.5   -92905.081     235.3775    20721    226804.54   -13.902228    67.417724   -180.52471    71.400297     435.3185    23.508208    22.162824   0.37834816    435.69685   -18.283339   -2052.5033 
   10000   -102601.06   -92889.894    235.85723    20721    226918.06   -32.210054   -148.79826   -10.163038    62.331136    435.49832    23.509235    22.163792   0.28843903    435.78676   -21.306251   -2060.4971 
   10100   -102566.04   -92861.288    235.70144    20721    226868.16   -39.112967    16.131681   -166.35303    32.882445    435.33311     23.51111     22.16556    0.3710448    435.70416   -13.326996   -2098.9947 
   10200   -102578.84   -92848.518    236.32248    20721    226876.69    27.761906    131.13428   -108.05358    60.205017    435.40613    23.509581    22.164118   0.33453666    435.74066   -41.465412   -2088.3991 
   10300   -102461.48   -92770.812     235.3593    20721    226859.04    22.100795   -168.83511    2.0076116    233.12989    435.58004    23.503973    22.158831   0.24757826    435.82762   -54.408789   -2153.2661 
   10400   -102638.64   -92824.447    238.35931    20721    226846.36   -54.287068   -146.16663    195.24943     -211.944    435.63042    23.501957     22.15693   0.22238752    435.85281   -43.623353   -2109.2931 
   10500   -102536.43    -92874.27    234.66703    20721    226692.86    41.915971    58.738984   -8.9806602    75.989588    435.45594     23.49871     22.15387   0.30963055    435.76557   -14.318998   -2099.2379 
   10600   -102500.04    -92795.74    235.69048    20721    226944.73    33.703305   -49.418594   -115.32376    265.85227     435.6714    23.505946    22.160692   0.20190009     435.8733   -30.912525   -2154.5417 
   10700   -102574.63   -92805.467    237.26574    20721    226812.81    42.833895   -90.196969    279.77284   -61.074187    435.46928    23.504566     22.15939   0.30296209    435.77224   -17.273435    -2163.875 
   10800   -102495.86    -92807.12    235.31256    20721    226864.99   -2.1031921    178.72749    24.449887   -209.48695    435.55384    23.504988    22.159788   0.26068242    435.81452    -31.44328   -2144.8706 
   10900   -102622.26   -92810.103       238.31    20721    226837.64    9.2705194   -25.191681    25.616186    27.387054      435.654    23.500869    22.155905    0.2105978     435.8646   -20.431844   -2157.2211 
   11000   -102587.53   -92805.882     237.5691    20721    226939.64   -63.022142   -184.55225   -1.5563643   -2.9578169    435.56427    23.508573    22.163168   0.25546264    435.81974   -10.934507   -2164.9837 
   11100   -102610.95    -92817.33    237.85968    20721    226906.64    8.8486923    28.248574    23.269649   -24.972146    435.71213    23.502875    22.157796   0.18153634    435.89366    -1.378053   -2168.6818 
   11200   -102513.42    -92802.81    235.84367    20721    226939.75   -42.632879     150.7143   -3.7860933   -274.82684     435.3834    23.513462    22.167777   0.34589756     435.7293   -5.0657952   -2177.0652 
   11300   -102526.32   -92770.111    236.95114    20721    226866.08    42.202918    192.46252    266.19763   -332.05139    435.48473    23.506909    22.161599   0.29523722    435.77996   -22.810288   -2200.9523 
   11400   -102582.49   -92740.835    239.02643    20721    226852.76   -89.749499    41.749537   -129.94404   -181.05399    435.72108    23.499843    22.154938   0.17705986    435.89814   -11.550715   -2236.2441 
   11500   -102436.88   -92729.493    235.76533    20721    226911.28    19.324398      11.7383   -29.405465     75.64036    435.48518    23.509239    22.163796   0.29501004    435.78019   -2.1286516   -2261.3272 
   11600    -102570.5   -92730.488    238.98643    20721    226875.97   -71.225481    23.314638   -113.04704   -123.94404    435.55422    23.505546    22.160314   0.26048804    435.81471  -0.15065501   -2262.3248 
   11700   -102461.77    -92760.49    235.61702    20721    226814.82    54.034521   -6.1427172   -58.611718      226.858    435.48459    23.504257    22.159099   0.29530702    435.77989    9.4739693   -2249.2648 
   11800   -102515.25   -92720.699    237.88229    20721    226948.26    1.8884753    78.896603    -197.0109    123.77973    435.59877    23.508089    22.162712   0.23821295    435.83699    -11.20495   -2262.6173 
   11900    -102459.4   -92726.755    236.37883    20721    226854.68    53.525554    264.32752    65.060643    -168.8115    435.56677    23.504105    22.158956   0.25421672    435.82098   -1.2143898   -2272.1338 
   12000   -102474.03   -92723.851    236.80468    20721    226908.33    6.6250319   -75.979687   -67.270145    163.12493    435.49277    23.508881    22.163459   0.29121599    435.78398    9.1327146   -2283.1545 
   12100   -102607.18   -92733.983    239.79245    20721    226930.06   -44.039611   -10.741558   -301.38185    180.00457    435.37612    23.513156    22.167489   0.34954167    435.72566    7.0364212   -2269.0582 
   12200   -102467.47    -92700.68    237.20811    20721    227041.23    24.271376    41.840431    129.22254   -98.248844    435.80585    23.507317    22.161983   0.13467268    435.94053     19.31959   -2315.1746 
   12300    -102464.6   -92719.539     236.6804    20721    226998.47   -8.9631925    22.142017    39.615062   -88.646657    435.84746    23.503981    22.158839   0.11387119    435.96133    25.231959    -2302.709 
   12400   -102497.14   -92724.227     237.3569    20721    227025.39   -11.531043   -33.972611   -28.434969    27.814451    435.54013    23.513666    22.167969   0.26753251    435.80767    14.530673   -2286.1575 
   12500   -102572.21   -92705.191    239.64243    20721    226885.15    32.050046   -30.073349    274.33153   -148.10804    435.39515    23.510315    22.164811    0.3400259    435.73517    20.096821   -2318.7969 
   12600   -102457.17   -92692.871    237.14753    20721    227025.49   -5.1132803    70.729512   -20.365411   -65.703943    435.71626    23.508918    22.163493    0.1794723    435.89573    21.435299   -2326.7066 
   12700   -102461.87   -92704.936    236.96884    20721    227005.37    41.331102    125.83995   -29.492485    27.645839    435.54167    23.512587    22.166953   0.26676601    435.80843    46.182828   -2345.2507 
   12800   -102445.65   -92692.288     236.8821    20721    226915.37   -60.303852    27.822907   -311.76351    103.02904    435.57702    23.506972    22.161659   0.24908939    435.82611    48.274575    -2357.682 
   12900   -102519.46   -92708.644    238.27748    20721       226969   -38.051173   -22.636039   -6.6021805   -84.915299    435.51448    23.511438    22.165869   0.28035883    435.79484    49.060981   -2343.3833 
   13000   -102528.58   -92721.408    238.18897    20721    226797.76    25.618304    62.966842    199.58772   -185.69965    435.44004    23.504576      22.1594   0.31758182    435.75762    58.223637   -2348.1218 
   13100   -102395.33   -92699.263    235.49045    20721    226772.36      -17.025    121.77714    -55.20972   -117.64242    435.47577    23.502295    22.157249   0.29971698    435.77548    69.484499   -2380.3447 
   13200    -102460.2   -92717.656    236.61929    20721    226818.91    3.2413852   -56.602479   -64.312472    130.63911    435.65855    23.499776    22.154874   0.20832682    435.86687    58.228547   -2351.2286 
   13300   -102551.94   -92718.813    238.81933    20721    226770.34    -14.69105   -12.257325    72.926743   -104.74257    435.25509    23.508148    22.162767     0.410055    435.66515      59.4027   -2353.8509 
   13400   -102529.55   -92699.416    238.74661    20721    226750.64   -71.755279   -155.24741   -410.51845    350.50002    435.48537    23.500911    22.155944    0.2949167    435.78028    50.256568   -2362.9963 
   13500   -102274.77   -92617.961    234.53691    20721    226746.77    81.179316    81.880858   -122.43269    284.08978    435.42363    23.502376    22.157326   0.32578265    435.74942     35.91575   -2434.2468 
   13600   -102393.81   -92656.456    236.49324    20721    226901.87    105.03326      23.3082    89.961943    201.82963    435.57654    23.506286    22.161011   0.24932771    435.82587    46.101384   -2407.0529 
   13700   -102444.43   -92629.249    238.38344    20721    226774.98   -77.309634    136.45399   -146.19311   -222.18978    435.37978    23.505022     22.15982   0.34771024    435.72749    54.842483   -2438.9937 
   13800   -102506.93   -92654.397    239.29053    20721    226867.82    9.5278109    160.94737    84.398996   -216.76293    435.43021    23.508471    22.163072   0.32249746     435.7527    44.953001   -2407.7368 
   13900    -102385.8   -92642.792    236.63052    20721    226874.08    16.444378    -15.10765   -86.684443    151.12523    435.51121    23.506609    22.161317    0.2819952     435.7932    36.313066    -2410.303 
   14000   -102410.56   -92577.666    238.81357    20721     226978.3    10.040841    68.911629    112.47923   -151.26834     435.6103    23.509333    22.163885   0.23245067    435.84275    47.055959   -2484.6074 
   14100   -102418.47   -92561.955    239.38734    20721    226890.84    46.949531    55.363198    71.096565     14.38883    435.60171    23.505035    22.159833   0.23674364    435.83846    22.049348   -2480.6345 
   14200   -102410.68   -92583.234    238.68122    20721    226903.46     27.46082    138.89679    100.63618    -157.1505    435.72738    23.502299    22.157253   0.17391077    435.90129    35.249396   -2471.0385 
   14300   -102334.09   -92571.307    237.11068    20721    226813.66   -3.4881708   -117.91601   -62.936873    170.38837    435.57308     23.50181    22.156792    0.2510601    435.82414    34.680806   -2485.5787 
   14400    -102340.7   -92566.212    237.39515    20721    226744.98    3.9306776    129.15096    45.762292   -163.12121    435.68386    23.495264     22.15062   0.19566998    435.87953     28.03662    -2488.158 
   14500   -102359.27   -92511.152    239.18324    20721    226850.03    -44.75152   -191.76703   -183.12815    240.64062     435.6442    23.501775    22.156759   0.21550092     435.8597    22.084767    -2534.187 
   14600   -102393.01   -92555.608    238.92303    20721    226833.48    23.132009    216.20836    28.114806   -174.92714    435.52483    23.504138    22.158987   0.27518437    435.80002    30.792047   -2504.7696 
   14700   -102399.69   -92554.245    239.11831    20721    226902.43    119.43855    319.73562    -86.36841    124.94844     435.5826    23.506151    22.160885   0.24629981     435.8289    22.204319   -2500.9795 
   14800   -102327.43   -92498.065    238.72779    20721    226884.35    -34.05385   -55.798102   -154.21721    107.85376    435.63444    23.503816    22.158683    0.2203782    435.85482     15.75784   -2545.9465 
   14900   -102375.06   -92520.471    239.34045    20721    226743.74   -54.965562    2.6753893    133.74544   -301.31751    435.28705    23.505906    22.160654   0.39407436    435.68113    13.099695   -2524.7999 
   15000   -102314.61   -92550.857    237.13436    20721    226850.41    37.910976    205.46083     82.90858   -174.63648     435.3842    23.508811    22.163392     0.345501     435.7297    30.307092   -2512.4854 
   15100   -102443.47   -92516.944     241.0876    20721    226933.88   -7.8413977    214.95808     -286.138    47.655723    435.54377    23.508828    22.163409   0.26571672    435.80948    23.296818   -2537.3279 
   15200   -102315.65   -92545.877    237.28055    20721    226878.41    10.890905     110.5875   -149.69512    71.780331     435.4962    23.507239     22.16191    0.2895015     435.7857    25.857337   -2513.8357 
   15300   -102447.13   -92559.895    240.13346    20721    226905.63    -88.02134    41.535098   -164.65584   -140.94328     435.5957    23.505964    22.160708   0.23975088    435.83545    25.438116   -2495.8147 
   15400   -102418.33   -92543.955    239.82101    20721    226866.98   -75.508995    46.820652    27.093434   -300.44107    435.39973    23.509251    22.163807   0.33773625    435.73746    16.775524   -2505.0142 
   15500    -102380.8   -92495.997    240.07426    20721    226777.67   -13.703722    5.8578436    297.71864   -344.68765    435.45389    23.503161    22.158066   0.31065739    435.76454     1.575685   -2544.8536 
   15600    -102316.1   -92560.029    236.94782    20721    226953.91     37.01242    78.367714   -58.007274    90.676821    435.44092    23.512642    22.167004   0.31713808    435.75806    24.174044   -2501.0071 
   15700   -102348.07   -92528.292    238.49508    20721    226770.21    44.215206     154.3617   -244.35733    222.64125    435.43753    23.503216    22.158118   0.31883741    435.75636    26.998557   -2542.9289 
   15800   -102443.44   -92483.732    241.89346    20721    226908.25   -37.159023   -126.59254    55.310931   -40.195457    435.51922    23.508163    22.162782   0.27799059    435.79721    26.465811   -2581.2715 
   15900   -102375.09   -92500.063    239.83698    20721    226815.41   -40.213848     106.8586   -94.651501   -132.84864    435.33428    23.508345    22.162953   0.37045978    435.70474    16.236022   -2558.1155 
   16000   -102448.32   -92497.627    241.67466    20721    227224.84    5.4764528    4.4789333    261.51655   -249.56612    435.88645    23.514645    22.168893  0.094374506    435.98083    40.862479   -2577.8955 
   16100   -102415.78   -92499.732    240.83327    20721    226907.25   -8.0333165   -167.87837    70.067835    73.710588    435.80891    23.500297    22.155365   0.13314677    435.94205    46.161911   -2590.3475 
   16200    -102311.2   -92513.466    237.95969    20721    226972.79    60.495463     -5.90336   -156.33991    343.72966    435.77492    23.504607    22.159429   0.15014239    435.92506    53.696412   -2586.5583 
   16300   -102373.91   -92503.759    239.71852    20721    227032.64   -16.612172   -70.009658    44.900805   -24.727663     435.8361    23.506056    22.160795   0.11954965    435.95565    50.547576   -2588.3756 
   16400   -102364.08   -92494.514     239.7042    20721    227025.44    31.041978    61.899175   -125.88509    157.11185    435.59102    23.512295    22.166677      0.24209    435.83311    58.610381   -2609.5932 
   16500      -102395   -92484.407    240.70072    20721     227044.9   -36.412943    16.261099   -327.67557    202.17564    435.66518    23.511301     22.16574   0.20500981    435.87019    72.797396   -2630.9027 
   16600   -102421.22   -92433.956    242.56284    20721    227115.94   -24.471563   -75.498728     252.4545   -250.37046    435.83492      23.5104     22.16489   0.12013894    435.95506    53.509949   -2661.3737 
   16700   -102380.19   -92440.295    241.41245    20721    227078.88   -80.600782    56.478924   -185.59573   -112.68554    435.73295    23.511232    22.165675   0.17112362    435.90408    58.363228   -2660.0707 
   16800   -102326.47   -92422.658    240.53597    20721    227171.25    31.131334    114.35965   -64.618303    43.652652    435.61884    23.519093    22.173086   0.22817842    435.84702    62.215839   -2683.5243 
   16900   -102199.32   -92394.567    238.13013    20721    227101.58    74.206368    36.934099   -125.60066    311.28566    435.66391     23.51427    22.168539   0.20564357    435.86956    67.227904   -2721.5714 
   17000   -102214.14   -92419.893    237.87509    20721    227180.53    111.01372     86.09719    166.38414    80.559825    435.90993    23.511719    22.166134  0.082635741    435.99256    69.838559   -2699.1193 
   17100   -102339.58   -92418.276    240.96076    20721    227121.15    -17.59036   -38.279361   -142.81477    128.32305    435.81016    23.511337    22.165774   0.13252245    435.94268    65.321152   -2693.9587 
   17200   -102333.12   -92426.529    240.60349    20721     227213.6   -4.6114088    14.052269   -91.932028    64.045532    435.83271    23.515514    22.169711   0.12124529    435.95395    73.482761   -2692.7599 
   17300   -102319.59   -92435.231    240.06349    20721     227125.7    28.769884   -64.333335    342.38235   -191.73936    435.74686     23.51328    22.167606   0.16417112    435.91103    81.227496   -2697.6029 
   17400   -102288.14   -92409.626    239.92169    20721    227014.81   -2.7232909     92.68668   -31.829987   -69.026566    435.52947    23.513406    22.167724    0.2728666    435.80233    89.740995   -2733.8364 
   17500   -102328.19    -92422.75    240.57546    20721    227027.64   -34.306112    124.77108   -172.85865   -54.830766    435.66364    23.510449    22.164936    0.2057782    435.86942    86.197437   -2718.2001 
   17600   -102316.06   -92470.225    239.12792    20721    226958.27    42.124886    118.51546    140.95761   -133.09841    435.63823    23.507543    22.162197   0.21848375    435.85672    97.708764   -2688.3533 
   17700   -102179.22   -92415.255    237.13952    20721    226977.44    129.28105    308.99024   -3.2272951      82.0802    435.60671    23.509385    22.163934   0.23424278    435.84096    84.586434   -2734.1847 
   17800   -102297.95    -92370.37    241.11324    20721    226956.64    40.417965    123.19266   -67.374753    65.435991    435.71102    23.505495    22.160266   0.18208916    435.89311    63.844149   -2756.8056 
   17900   -102376.57   -92380.965     242.7653    20721    226905.76   -56.540548   -50.528007   -96.822253   -22.271383    435.41775    23.510773    22.165242   0.32872696    435.74647    89.815929   -2772.2286 
   18000   -102312.89   -92332.593    242.39368    20721    227094.46    -26.01301    80.825751   -115.62068   -43.244096    435.62441    23.514967    22.169196   0.22539524     435.8498    84.991103   -2812.0342 
   18100   -102366.94   -92369.029    242.82151    20721    227018.47   -20.805567    38.167046    38.853373   -139.43712     435.8591    23.504702    22.159519   0.10805004    435.96715    89.195512   -2787.0014 
   18200   -102265.36    -92321.54    241.50775    20721    226987.62   -56.530282   -199.60612   -54.408943    84.424215     435.6436    23.508917    22.163493   0.21579991     435.8594    75.995754   -2819.4276 
   18300   -102200.41   -92275.192    241.05584    20721    226900.58  -0.77619808    13.292069   -260.81407     245.1934    435.53733    23.507277    22.161946   0.26893648    435.80626    68.246044   -2864.5511 
   18400   -102264.31    -92280.73    242.47341    20721    227098.97   -18.573733    -16.37798   -194.91557    155.57235     435.4785     23.51914     22.17313   0.29835222    435.77685    75.835233   -2862.1386 
   18500   -102220.28   -92262.706    241.84167    20721    227015.66    19.885435    59.947091   -28.481415    28.190628    435.75113    23.507468    22.162127   0.16203309    435.91317    79.396734   -2889.5196 
   18600   -102291.32   -92256.694    243.71321    20721    226989.88   -114.92278   -45.683752   -159.16509   -139.91949    435.47451    23.513598    22.167905   0.30034666    435.77485    75.043983   -2885.9385 
   18700   -102210.64   -92240.974    242.13532    20721    227003.28    39.911563   -128.30459    61.211893    186.82739    435.67355     23.50892    22.163495   0.20082285    435.87438    71.283994   -2905.7738 
   18800    -102213.5    -92259.81    241.74746    20721    226930.32   -30.847662   -124.78173    25.898057    6.3406866    435.63025     23.50631    22.161035   0.22247387    435.85273    88.153997   -2903.1197 
   18900   -102188.78   -92218.138    242.15911    20721    227132.03    44.860724    32.069457    76.115255     26.39746    435.78802    23.512498    22.166868   0.14359173    435.93161    75.522729   -2929.9977 
   19000   -102218.07   -92237.519    242.39975    20721    226980.26    42.202094   -68.376657    201.02309   -6.0401458    435.56661    23.510614    22.165092   0.25429624     435.8209    72.390894   -2914.9256 
   19100    -102133.6   -92197.534    241.31924    20721    227029.79   -7.2731154   -131.33577   -24.500837    134.01726    435.73703    23.508581    22.163175   0.16908527    435.90611    79.719493   -2959.6319 
   19200   -102241.17    -92192.82    244.04643    20721    227074.46   -54.292584    74.605716   -72.407927   -165.07554    435.67079     23.51268     22.16704   0.20220443      435.873    74.725673   -2957.8488 
   19300   -102110.31   -92161.273    241.63447    20721    227106.06    49.443714   -110.82987    277.72049   -18.559478    435.65287      23.5148    22.169039   0.21116636    435.86403    75.910168   -2993.3646 
   19400   -102261.84   -92206.758    244.20996    20721    226933.77   -87.735003   -61.935051   -45.567854   -155.70211    435.65621    23.505789    22.160543   0.20949529     435.8657    86.707677   -2957.9552 
   19500   -102202.88   -92147.039    244.22844    20721    227083.87    33.517677    -25.71411   -120.55826    246.82541    435.80979    23.509417    22.163964   0.13270707    435.94249    90.437844   -3025.3731 
   19600   -102020.93   -92100.957    240.92845    20721    227074.15   -7.5136787   -7.6883698   -55.943052    41.090385    435.70276    23.511801    22.166211   0.18621841    435.88898    64.939577   -3044.4184 
   19700   -102138.37   -92157.924    242.39719    20721    227009.47    17.355126   -122.33121    222.24684    -47.85026    435.70707    23.508337    22.162945   0.18406397    435.89114    87.455208   -3012.9659 
   19800   -102174.92    -92149.59    243.48744    20721     226960.2    -24.63098   -57.192112   -71.582113    54.881286    435.46829    23.512229    22.166615   0.30345706    435.77174    78.320328   -3015.1981 
   19900   -102053.04    -92117.77    241.30012    20721    226991.58    14.353332    120.88084    98.782424   -176.60327    435.72814    23.506842    22.161536   0.17353045    435.90167    70.383701   -3036.7236 
   20000   -102094.53   -92121.738    242.21132    20721    227018.93   -11.939982   -92.091374     145.5533   -89.281875    435.79118    23.506557    22.161268   0.14200917    435.93319    76.389975   -3039.6543 
   20100   -102115.19   -92104.085    243.14196    20721    227163.07   -17.551035   -21.299669   -227.45813    196.10469    435.69973    23.516486    22.170628   0.18773402    435.88747    108.41046    -3088.639 
   20200   -102110.08   -92068.218    243.88889    20721    227030.53   -130.59821    -243.3881   -42.581152   -105.82538    435.91662    23.503775    22.158645  0.079289004    435.99591     93.32016   -3108.1098 
   20300   -102154.64   -92074.313     244.8231    20721     227174.1    -17.01196   -17.303778    89.028078   -122.76018    435.84768    23.513066    22.167403    0.1137616    435.96144    101.17764   -3113.1877 
   20400   -102071.42   -92112.188    241.88189    20721    226783.31    35.069951    52.900895    119.80637   -67.497408    435.65456    23.498039    22.153237   0.21031839    435.86488    103.01943   -3091.3894 
   20500   -102087.56   -92115.441    242.19492    20721    227113.56    23.586626     62.83624    18.372259   -10.448621    435.92058    23.507967    22.162596  0.077309223    435.99789    106.74209   -3082.1728 
   20600   -102180.59   -92124.521      244.234    20721    227189.34   -2.5983282   -72.030613   -79.037563    143.27319    435.74549    23.516611    22.170746   0.16485669    435.91034     109.2421   -3075.4177 
   20700   -102124.04   -92146.232    242.33324    20721    227055.28   -9.5636996   -244.69662    48.934767    167.07075    435.80333    23.508112    22.162733   0.13593697    435.93926    108.90966   -3057.3645 
   20800    -102134.9   -92154.695    242.39146    20721    226972.82    5.4415591    77.759268    137.31314   -198.74773    435.71926     23.50611    22.160846    0.1779703    435.89723    107.69834   -3052.3982 
   20900   -102102.11     -92178.7    241.01206    20721    227072.28   -53.932334   -24.029923    66.695846   -204.46292    435.63877    23.513432    22.167748   0.21821682    435.85698    131.85358   -3048.6566 
   21000   -102197.35   -92150.545    244.00892    20721    227104.72    38.840012   0.68107945    36.693207    79.145749    435.91111    23.507764    22.162405  0.082044438    435.99316    125.13572   -3074.0252 
   21100   -102114.03   -92140.836    242.22107    20721     226985.7   -47.788656    124.74382    29.348345   -297.45813    435.77781    23.505197    22.159986   0.14869423    435.92651    140.75351   -3097.5475 
   21200   -102123.24   -92135.882    242.56504    20721    227052.68    21.414445    25.050781   -63.483545     102.6761    435.78638    23.508434    22.163037   0.14441181    435.93079    130.00989   -3097.1603 
   21300   -102139.35   -92190.186    241.63742    20721    227092.75   -10.989086   -165.75054    105.98805    26.795232    435.55307    23.516805    22.170928   0.26106332    435.81414      120.343   -3032.1552 
   21400   -102146.45   -92153.477    242.70142    20721    226949.57    18.033618   -32.652082    62.738014    24.014922    435.63811    23.507095    22.161775   0.21854554    435.85665    119.80841    -3074.634 
   21500   -102062.58    -92118.35    241.51753    20721    227231.89    25.218441    191.99349   -88.171144   -28.167024    435.85714    23.515801    22.169982   0.10903106    435.96617      108.447   -3090.3457 
   21600   -102220.43   -92140.829    244.80546    20721    227018.82   -43.964778   -199.59042    49.431762    18.264325    435.90598    23.503456    22.158344  0.084607678    435.99059    110.89936   -3075.9503 
   21700   -102094.75   -92149.636    241.53905    20721    227104.33    7.2655993   -192.67121    130.47051      83.9975    435.93299    23.507154     22.16183  0.071104889     436.0041    141.61906   -3098.1333 
   21800   -102020.57   -92118.458    240.49475    20721    227015.41     34.91029    91.609253   -27.951629    41.073246    435.86508    23.504382    22.159217   0.10505909    435.97014    128.34929   -3120.7565 
   21900   -102081.34   -92110.588    242.16167    20721    227038.88    30.272785    48.274623    93.303833   -50.760102    435.79987    23.507356    22.162021   0.13766483    435.93754    125.22878   -3125.9174 
   22000   -102050.21    -92089.11    241.92748    20721    227019.76    9.7405846     246.2607   -98.250566   -118.78838     435.7379    23.508038    22.162663   0.16864856    435.90655    132.25817   -3155.7718 
   22100   -102020.23   -92058.194    241.95011    20721    227033.24    30.036667    19.772176   -4.9066313    75.244456      435.789    23.507357    22.162022   0.14309986     435.9321    121.34077   -3176.5498 
   22200   -102146.03   -92054.832    245.08704    20721    227065.48   -87.825706   -100.51709      61.6326   -224.59263     435.9734    23.504054    22.158907  0.050900961     436.0243    126.19257   -3181.1965 
   22300   -102140.42   -92024.773    245.68075    20721    227149.82   -37.857824   -138.96175   -233.22977    258.61805    435.69099    23.516036    22.170204   0.19210664    435.88309    128.56434   -3212.7074 
   22400   -102136.95   -92051.348    244.95106    20721    227149.83   -15.690976    147.19959   -110.82192   -83.450598    435.87925    23.510958    22.165417  0.097975796    435.97722    136.85952   -3197.7392 
   22500   -101950.38   -92006.254    241.51519    20721    226941.18    19.380851    155.92072   -167.65648    69.878321    435.86472    23.500549    22.155603   0.10523804    435.96996    136.21186   -3249.2821 
   22600   -102134.69   -92036.344    245.26062    20721    227118.31   -96.979846   -158.43033    37.709365   -170.21857    435.70815    23.513942     22.16823   0.18352551    435.89167    139.50464   -3214.0701 
   22700   -102050.66   -92009.149    243.88026    20721    226873.82   -19.579269   -41.582638     -181.457    164.30183    435.63428    23.503275    22.158173   0.22046073    435.85474    135.72486   -3248.2971 
   22800   -102077.13   -92065.684    243.15012    20721    226926.17   -40.164033   -9.5515356   -78.948896   -31.991666    435.69182    23.504434    22.159266   0.19168872    435.88351     161.4606   -3215.6276 
   22900   -102050.27   -92020.806    243.58785    20721    227022.17   -19.230722    -155.4618    38.287644    59.481989    435.60839    23.511657    22.166075   0.23340609    435.84179    150.52847   -3248.9154 
   23000   -102157.92   -92027.372    246.04283    20721    226970.24   -80.395909    20.684457   -131.57279   -130.29939    435.59104    23.509436    22.163981   0.24208047    435.83312    132.43686    -3227.125 
   23100   -102012.86   -92030.457    242.44483    20721    226938.62     37.25412     27.84795    99.109534   -15.195123     435.6933    23.505039    22.159836    0.1909486    435.88425    161.03813   -3256.5938 
   23200   -102092.06    -92009.94    244.86662    20721    227078.83   -20.556106   -14.307972    76.475048   -123.83539    435.63856    23.513776    22.168073   0.21831908    435.85688     153.0081   -3263.4124 
   23300   -102056.55   -92024.651    243.64686    20721    226990.48   -10.029471    8.9591192   -53.581016    14.533484    435.36774    23.516512    22.170653   0.35372871    435.72147    161.26724   -3260.2703 
   23400   -102029.78   -92021.483    243.07354    20721    226986.47   -42.355618    193.80421   -331.10927    10.238206    435.61802    23.509548    22.164087   0.22859001    435.84661    148.23751   -3251.4217 
   23500   -102040.62   -92007.319    243.68101    20721    227022.65   -90.864391   -168.02874   -327.67578    223.11134     435.6987    23.509245    22.163801   0.18825027    435.88695    170.57504    -3284.128 
   23600    -102018.1   -91994.093    243.45508    20721    227063.94      49.1037    29.176364    34.623153    83.511584    435.47396    23.517448    22.171535   0.30061983    435.77458    164.75737   -3300.5205 
   23700   -102044.29   -91968.901    244.70311    20721    227170.87   -40.760416    15.732497    -65.47044   -72.543304     435.9102    23.511212    22.165656  0.082501472     435.9927    188.50205   -3343.0057 
   23800   -102060.62     -91980.1    244.82781    20721     226989.9    10.233446   -298.48052    189.82508    139.35577    435.62971    23.509411    22.163958   0.22274578    435.85245    177.75166   -3329.1878 
   23900   -102118.92   -91998.244    245.80296    20721    226921.17   -22.373835   -68.798733   -263.75187     265.4291    435.65407    23.505194    22.159982    0.2105666    435.86463    167.57174   -3300.9314 
   24000   -102002.03    -91934.64    244.50885    20721    227019.86     33.37508    177.03261    264.55472    -341.4621    435.78882    23.506669    22.161373   0.14319144    435.93201    151.32355   -3350.6468 
   24100   -102059.23   -91987.056    244.62509    20721    226922.56   -23.669273    8.5100196     -16.4612   -63.056637    435.66775    23.504897    22.159702   0.20372551    435.87147    168.99471   -3317.8456 
   24200   -101971.91   -91963.669    243.07218    20721    226888.69    8.9459708    94.781239    103.30259   -171.24592    435.81425    23.499192    22.154324   0.13047717    435.94472    171.62515   -3345.9448 
   24300   -101936.81   -91938.092    242.84089    20721     226916.7    5.1237282    226.81273    -100.9159   -110.52564    435.77194    23.501783    22.156766   0.15163002    435.92357    155.38909   -3355.4648 
   24400    -101988.2   -91887.269    245.32355    20721     227026.5    52.386194    107.24894   -105.59055    155.50019    435.69069     23.50966    22.164193   0.19225508    435.88294    177.23331    -3429.483 
   24500   -101864.64   -91861.478    242.94888    20721     226943.8     74.27733    12.701487   -331.84876    541.97926    435.58524    23.508223    22.162838   0.24497995    435.83022    149.54351   -3430.3298 
   24600   -101965.45   -91880.232    244.94186    20721    226988.02   -75.292205   -346.18322    165.84484   -45.538234     435.7314     23.50657    22.161279   0.17190032     435.9033    169.79948   -3427.7476 
   24700   -101812.25   -91869.094    241.49162    20721    226983.97    3.0313478   -74.946168    176.80375   -92.763541    435.71064     23.50692     22.16161     0.182282    435.89292    179.21171   -3450.8476 
   24800   -101871.98   -91903.565    242.10497    20721    227067.11    53.453181    167.33704   -141.30701    134.32951    435.83661    23.507826    22.162464    0.1192953     435.9559     180.2535   -3419.3107 
   24900   -101950.81   -91912.773    243.79605    20721    227047.46    58.333034    43.357049   -59.171977    190.81403    435.78384    23.508233    22.162847   0.14567948    435.92952    171.04696   -3404.7239 
   25000   -101977.19    -91889.92    244.99174    20721    227088.71    24.248476   -1.7438772   -159.40204    233.89135    435.79897     23.50996    22.164475   0.13811522    435.93708    184.20629   -3437.5058 
   25100   -101961.46    -91884.66    244.73738    20721    227056.51    16.160009    108.71954    134.27866   -194.51818    435.52985    23.515555    22.169751   0.27267701    435.80252    169.69184    -3430.521 
   25200   -101980.58   -91888.261    245.11443    20721    226976.41   -50.213609   -101.12372     205.1165   -254.63361    435.55809    23.510644    22.165121   0.25855427    435.81665    195.44591   -3453.3045 
   25300    -101919.8   -91849.759    244.57319    20721    226938.23   -27.037077   -19.785687   -66.176219    4.8506742    435.45266    23.511513     22.16594   0.31127004    435.76393    161.70288   -3460.2708 
   25400   -101915.83   -91817.685    245.25588    20721    227003.74    -95.74779   -22.058062   -375.04937    109.86407    435.65213    23.509522    22.164063    0.2115348    435.86367     161.6424   -3488.0705 
   25500   -101791.28   -91808.086    242.46407    20721    226982.85    -11.09337   -62.481776   -256.58749    285.78916    435.68509    23.507551    22.162205   0.19505401    435.88015    164.86536   -3505.0943 
   25600    -101873.4   -91793.103    244.82241    20721     227013.8    57.707335   -85.050523    71.518855    186.65367     435.6836    23.509194    22.163753   0.19579897     435.8794    148.60489   -3511.2647 
   25700   -101850.33   -91779.377    244.59537    20721    227036.75    9.0004825    104.50015   -87.394829    9.8961284    435.73989    23.508863    22.163442   0.16765468    435.90755    159.69787   -3530.5875 
   25800      -101876   -91797.967     244.7674    20721    226923.82   -6.0679783    127.45752   -23.604872   -122.05658    435.48304    23.509946    22.164463   0.29608141    435.77912    158.74788   -3516.8698 
   25900   -101863.24   -91802.799    244.34007    20721    226949.47   -53.830873    10.035825    137.34001   -308.86846    435.62185    23.507529    22.162183   0.22667422    435.84853    154.12513   -3504.9657 
   26000   -101949.64   -91755.608    247.58457    20721    226977.24    7.4344183   -96.261871  -0.51205331    119.07718    435.68858    23.507167    22.161842   0.19330913    435.88189    156.84878   -3558.9619 
   26100   -101905.85   -91755.426     246.5256    20721    226904.44   -125.60347   -103.72356    25.202982   -298.28985    435.30245    23.513818    22.168113   0.38637399    435.68883    145.53169    -3542.995 
   26200   -101865.25   -91708.897    246.66963    20721    226809.43    46.702624    169.64718   -14.423819   -15.115492    435.38247    23.506734    22.161434   0.34636261    435.72884    142.19967   -3598.0494 
   26300   -101808.16   -91716.369    245.10136    20721    226968.07    50.206559   -39.108501   -91.248016    280.97619    435.41226    23.514149    22.168425   0.33147226    435.74373    155.15879   -3600.6686 
   26400   -101805.81   -91690.326    245.67699    20721    226869.75   -70.789121   -55.462695   -272.04905    115.14438    435.54695     23.50542    22.160196   0.26412582    435.81107    149.43937   -3618.9837 
   26500    -101783.5   -91696.373    244.98813    20721    226970.12    74.783216    117.71577   -65.276935    171.91082    435.88232    23.501573    22.156569  0.096439277    435.97876    156.00507   -3625.2442 
   26600   -101838.73   -91623.859    248.09082    20721    226799.07   -5.5066148    57.586158    71.269023   -145.37502    435.56211     23.50135    22.156358   0.25654347    435.81866    120.21507   -3662.5956 
   26700   -101769.94    -91684.24    244.95363    20721    226972.53   -106.23394   -132.86135   -59.908928   -125.93153    435.73529    23.505663    22.160424   0.16995267    435.90525    141.35646   -3613.1897 
   26800   -101818.25   -91666.444    246.55902    20721     226963.5     34.42024    84.321095    83.130694    -64.19107    435.46378    23.512522     22.16689   0.30571172    435.76949    150.07045   -3650.9766 
   26900   -101762.31   -91638.141    245.88796    20721    226883.69  -0.28400781    -107.7015    370.97889   -264.12942    435.36639    23.511016    22.165471   0.35440294     435.7208    145.60203    -3674.975 
   27000   -101743.11   -91611.774     246.0618    20721    227060.06   -109.72197    41.693929   -246.61726   -124.24259    435.61168     23.51353    22.167841    0.2317607    435.84344    150.97001   -3698.4463 
   27100   -101683.91   -91574.348    245.53315    20721    226865.63   -52.901499   -162.91628    181.62618    -177.4144    435.52168    23.505889    22.160637   0.27676167    435.79844    137.08811   -3729.9976 
   27200   -101714.56   -91619.924    245.17045    20721    227181.37    68.635149    289.15221    92.581218   -175.82799    435.54407    23.521636    22.175483   0.26556438    435.80964     163.6786   -3708.1659 
   27300   -101681.46   -91610.018    244.60736    20721    226875.44   -24.179957     148.0497     -211.256   -9.3335705    435.45882    23.508094    22.162716   0.30819198    435.76701    155.05341    -3717.196 
   27400   -101729.99   -91585.071    246.39191    20721    227228.45   -35.577311    43.113709    36.655265   -186.50091    435.71717      23.5194    22.173375   0.17901257    435.89619    137.89609   -3714.1134 
   27500   -101625.61   -91569.676    244.23063    20721    227193.09    41.934759   -25.375406    -165.3239    316.50359    435.68485    23.518442    22.172472   0.19517667    435.88002    148.01447    -3747.262 
   27600   -101684.91   -91592.872     245.1074    20721    227305.51    51.874991    149.21459   -186.50949    192.91988    435.71859    23.523349    22.177099   0.17830506    435.89689    156.90771   -3729.1814 
   27700   -101760.11   -91567.973    247.53851    20721     227183.9   -78.481363    -12.35451    209.31042       -432.4    435.97342    23.510182    22.164685  0.050891666    436.02431      161.053   -3758.4453 
   27800   -101695.17   -91568.561    245.94707    20721    227146.56    5.0837836   -77.374615    44.055667    48.570299    435.84328    23.511759    22.166171   0.11596051    435.95924    143.73563   -3745.9201 
   27900   -101665.39   -91576.835    245.02287    20721     227081.3     44.91356    25.338281   -76.245191    185.64759    435.45148    23.518954    22.172955   0.31185778    435.76334    149.90912   -3748.7381 
   28000   -101691.15   -91577.612    245.62959    20721    226870.49    4.0275484   -142.63961    4.6851535     150.0371    435.32494    23.511451    22.165882   0.37512795    435.70007    159.61379   -3762.1598 
   28100   -101678.87   -91553.593    245.91486    20721    227092.79    59.857277     119.4499   -111.94697     172.0689    435.58231    23.516017    22.170186   0.24644347    435.82876    169.12542   -3795.9611 
   28200   -101638.11    -91536.97    245.32843    20721    227032.58    77.709862    9.5094967    281.86367   -58.243576    435.58783    23.512751    22.167107   0.24368729    435.83151    149.53049   -3794.9317 
   28300   -101629.69   -91532.199    245.23987    20721    226908.61    -14.48605    19.438828   -221.21291    158.31593    435.36017    23.512476    22.166847   0.35751535    435.71768    138.13272   -3787.8163 
   28400   -101718.49   -91515.319    247.80663    20721     227182.5   -23.077524    82.023025   -311.30983    160.05424    435.86736    23.512969    22.167313   0.10391852    435.97128    124.41216   -3783.3754 
   28500   -101677.81   -91560.699    245.71649    20721    226887.03   -52.811584   -188.16894   -140.15475    169.88894    435.75712    23.500646    22.155695   0.15904239    435.91616    154.79701   -3779.1166 
   28600   -101656.08   -91471.889    247.34573    20721    227133.56  -0.78099709    23.751096     -4.15562   -21.938467    435.45659    23.521523    22.175377   0.30930543    435.76589    122.14393   -3832.1771 
   28700    -101607.9   -91464.125    246.36401    20721    227157.38   -35.299795    56.123287   -159.05494     -2.96773    435.79659    23.513578    22.167887   0.13930355     435.9359    119.35083   -3833.8673 
   28800   -101602.71   -91393.225    247.95996    20721    227050.66    23.159498    147.12496   -185.56702    107.92055    435.75844    23.509083    22.163649   0.15838179    435.91682    123.59271   -3917.2657 
   28900    -101647.6   -91471.928    247.13862    20721    227023.78     46.17915    157.75974   -289.68979     270.4675    435.81368    23.506202    22.160933    0.1307604    435.94444    125.69141   -3843.5776 
   29000   -101582.89   -91466.133    245.70773    20721    226841.79    10.604701    40.720021   -162.61284    153.70692    435.43106    23.507099    22.161779   0.32207005    435.75313    124.18751   -3852.5482 
   29100   -101678.69   -91432.725    248.84587    20721    226941.84   -3.1355283     46.44267   -130.58897    74.739711     435.4752    23.511091    22.165542    0.2999997     435.7752    128.60153   -3888.5746 
   29200   -101528.38   -91391.614    246.19373    20721    226803.55   -40.661613   -107.38367   -87.472441    72.871268    435.39382    23.506124    22.160859    0.3406922    435.73451    111.40105   -3914.6567 
   29300    -101553.2   -91369.288    247.33877    20721    226843.97    62.743445    152.35518    119.59847   -83.723313    435.16616    23.514367     22.16863   0.45452236    435.62068    114.15627    -3943.902 
   29400   -101468.73   -91352.407    245.69731    20721     226783.6    34.232459    -109.9614    19.767272     192.8915    435.38683    23.505278    22.160062    0.3441868    435.73101    113.75856   -3963.6078 
   29500   -101593.46   -91344.808    248.91109    20721    226904.18   -19.253122   -37.241891   -186.74456    166.22709    435.36161    23.512207    22.166594   0.35679578     435.7184    105.94673   -3957.5058 
   29600   -101615.37   -91415.946    247.71558    20721    226915.08    19.329093   -82.271794   -2.3101129    142.56919    435.28043    23.514964    22.169194   0.39738307    435.67782    113.56665   -3896.9458 
   29700   -101548.56   -91323.453    248.33942    20721     226902.3   -9.4019816   -104.92527    228.42411   -151.70478    435.05039    23.520518    22.174429   0.51240583    435.56279    109.98327   -3985.9496 
   29800   -101558.27   -91367.989    247.49363    20721    226796.04     79.99208    232.76742     389.8879   -382.67909    434.91207    23.518749    22.172762   0.58156666    435.49363     103.9355   -3942.4798 
   29900   -101483.23   -91360.665    245.84883    20721     226643.4   -120.59726   -134.34374   -462.14399    234.69595    434.82837    23.513096    22.167432   0.62341374    435.45179    81.317363   -3924.3154 
   30000   -101580.82   -91332.204    248.91042    20721    226941.02    5.7185866   -9.4044177   -196.41591    222.97608    435.32294     23.51516    22.169378   0.37613088    435.69907    101.31196   -3973.4531 
   30100   -101500.39   -91339.209    246.78681    20721    226764.84   -36.000932    -119.2553     41.70967   -30.457165    434.98684     23.51511    22.169331   0.54417922    435.53102    94.090236   -3962.5899 
   30200   -101611.75   -91383.961    248.40455    20721    226610.38   -34.456672    12.128001   -83.214469   -32.283549    434.74344     23.51368    22.167982   0.66588013    435.40932    119.35533   -3949.0141 
   30300   -101543.67   -91400.833    246.34115    20721     226666.8    7.3684569    -192.2006     97.88117     116.4248     434.7215      23.5172    22.171301   0.67685023    435.39835    108.31307    -3922.046 
   30400   -101430.61   -91361.525    244.54999    20721    226737.76    170.12024    137.54969    541.35968   -168.54864    434.80859    23.518525    22.172551   0.63330553    435.44189    113.89163    -3971.372 
   30500   -101548.72   -91380.218    246.96449    20721    226659.72  0.077089673   -63.717717   -92.725055    156.67404     434.7379    23.516389    22.170536   0.66864858    435.40655    137.99455   -3974.0109 
   30600   -101575.75   -91405.022    247.01856    20721    226514.72   -3.0165786     139.8408    11.854473   -160.74501    434.43437    23.517077    22.171186   0.82041523    435.25478     136.5247   -3953.8209 
   30700   -101576.27   -91376.463    247.72499    20721    226538.21   -60.417726   -66.919477    -142.6465    28.312802    434.44394    23.518037     22.17209   0.81562951    435.25957    134.76983   -3976.1761 
   30800    -101549.3   -91328.532    248.23389    20721    226646.54    47.630765     29.25504   -159.58139    273.21864    434.57631    23.520077    22.174014   0.74944544    435.32575    126.62551   -4020.9915 
   30900   -101507.13   -91310.032    247.65901    20721    226462.21   -37.316942   -147.75156    -50.67398    86.474716    434.16288    23.521702    22.175546   0.95616185    435.11904    116.42308     -4030.79 
   31000   -101453.21   -91294.739    246.72094    20721    226225.51    53.209749    101.50424    201.83608   -143.71108    434.16605     23.50932    22.163872   0.95457393    435.12063    119.21707   -4059.6092 
   31100   -101522.31   -91317.197    247.85379    20721    226430.33    15.391463    150.16911   -228.97935    124.98462    434.48806    23.511243    22.165685   0.79356934    435.28163    129.87621   -4043.7363 
   31200   -101558.63   -91357.414    247.75913    20721    226312.67   -108.86072    9.9914666   -508.56332    171.98968    434.35102    23.508841    22.163421   0.86208763    435.21311    117.07578   -3986.6368 
   31300   -101520.35    -91342.82    247.18387    20721    226503.46    -10.50252     354.4238   -106.98236     -278.949       434.66    23.510388    22.164879   0.70760193     435.3676     139.6646   -4025.0688 
   31400   -101501.94   -91350.041    246.56124    20721    226523.62   -39.422791   -386.04772    204.72902    63.050327    434.63738    23.512046    22.166443   0.71891124    435.35629    125.41014   -4005.9924 
   31500   -101540.29   -91331.309    247.94758    20721    226394.69   -55.519829   -233.20688    166.57671   -99.929319    434.53984    23.507992     22.16262   0.76767944    435.30752    132.89675   -4037.7359 
   31600   -101608.75   -91364.714    248.79914    20721    226679.84    38.119325    42.946476   -191.66911    263.08061    434.64744     23.51988    22.173828    0.7138789    435.36132    143.38199   -4012.8677 
   31700   -101380.11    -91285.89    245.16047    20721    226410.83   -7.6702165    29.025454   -246.61436    194.57826    434.14337    23.519562    22.173528   0.96591658    435.10928    119.72698   -4071.2399 
   31800      -101476   -91237.794    248.65744    20721    226561.58   -4.0929896     83.50627   -122.71547    26.930229    434.48794    23.518059    22.172111   0.79362988    435.28157    111.50532   -4108.9851 
   31900   -101362.37   -91235.129    245.96242    20721    226553.28    45.314819    152.98998     54.18295   -71.228476    434.36942    23.520837     22.17473    0.8528912    435.22231    83.077554   -4086.9767 
   32000   -101438.91   -91231.819     247.9017    20721    226575.19   -49.642822    66.969145   -314.17415    98.276539    434.49022    23.518704    22.172719   0.79249016    435.28271    103.35345   -4106.6039 
   32100    -101466.3   -91179.459    249.83877    20721     226445.2   -119.86599    51.131856   -185.17095   -225.55887    434.52117     23.51112    22.165569   0.77701732    435.29818    71.399423   -4129.7753 
   32200   -101351.63   -91227.423     245.8889    20721    226727.39    20.812311    61.908701   -273.20529    273.73353    434.63189    23.522768     22.17655   0.72165726    435.35354    103.99819   -4111.9557 
   32300   -101340.52   -91199.466    246.29799    20721    226394.12    98.504586    168.29476    150.72733   -23.508334    434.10873    23.519632    22.173594    0.9832341    435.09197    92.231699   -4144.2981 
   32400   -101458.24       -91233    248.34255    20721    226402.02   -28.688497    6.7764928    31.787773   -124.62976    434.31322    23.514505     22.16876   0.88099144    435.19421    100.47253   -4116.2823 
   32500   -101479.93   -91212.621    249.36435    20721    226647.45   -79.837877   -234.29694   -239.29882    234.08212    434.46741    23.523072    22.176837   0.80389704     435.2713    101.79225   -4129.4206 
   32600   -101322.36   -91151.737    247.01606    20721    226480.29     60.16911    124.15521   -166.90302    223.25513    434.31084    23.518634    22.172653   0.88218191    435.19302    96.989361   -4195.1759 
   32700   -101419.14     -91186.5    248.52225    20721    226588.11   -25.822634    103.66705   -134.72641   -46.408538    434.36621    23.522732    22.176516   0.85449508     435.2207    110.11463   -4167.8935 
   32800   -101292.33   -91157.485    246.14713    20721     226640.2   -4.0028824   -165.26897    -78.73744    231.99777    434.28754    23.527566    22.181074   0.89383149    435.18137    99.901994   -4188.9036 
   32900   -101366.48   -91134.323    248.51062    20721    226882.99   -33.968382   -3.2875258    -76.83382   -21.783801    434.60957    23.531442    22.184728   0.73281373    435.34239      110.607   -4214.3522 
   33000   -101372.03   -91154.155     248.1636    20721    226535.64   -12.692193    131.38273    53.052408   -222.51171     434.3632    23.520089    22.174025   0.85599796     435.2192    125.99003    -4222.556 
   33100   -101355.69   -91129.665    248.36172    20721    226729.48    88.165221    285.62016    133.33361   -154.45811     434.7512    23.519648    22.173609   0.66200216     435.4132    114.47058   -4236.7647 
   33200   -101288.51   -91139.773    246.48447    20721    226690.31    31.456595    129.74857    94.061531   -129.44032    434.70362    23.518903    22.172907   0.68579228    435.38941    119.66202   -4229.4566 
   33300   -101359.67   -91141.164    248.17895    20721       226551    61.572285    186.85922    86.642234   -88.784596    434.40927     23.51964    22.173601   0.83296389    435.24224    107.05152    -4223.169 
   33400   -101389.17   -91188.267    247.75145    20721    226545.35    -25.37129   -63.560226   -75.462939    62.909294    434.53786    23.515866    22.170044   0.76867145    435.30653    134.79118   -4202.3212 
   33500   -101368.86   -91177.952    247.50872    20721    226654.54   -42.928841   -155.50816    179.21109   -152.48945    434.45084    23.523888    22.177607   0.81217862    435.26302    127.84492   -4203.0826 
[...]
  491800   -95772.925   -84252.514    279.79869    20721    220743.73    32.946229    84.177205   -36.563401    51.224883    423.40141    23.516098    22.170262    6.3368942    429.73831    5489.8256   -23748.841 
  491900   -95806.234   -84250.603     280.6541    20721    220825.26   -95.117878   -121.98054   -197.95687    34.583772    423.76967    23.510218    22.164719     6.152763    429.92244    5493.5018   -23747.886 
  492000   -95827.567   -84228.173    281.71696    20721    220797.36   -85.447314    65.958923   -410.76097    88.460104    423.83387    23.506952     22.16164    6.1206629    429.95454    5472.4159   -23751.123 
  492100   -95803.425   -84230.502    281.07405    20721    220876.43    75.937244    188.76717   -176.15723    215.20179    423.80273    23.512024    22.166422    6.1362361    429.93896    5480.8564   -23764.784 
  492200     -95796.6   -84295.888    279.32024    20721    221105.65    59.421144    122.85065   -201.06472     256.4775    423.79664    23.524391     22.17808    6.1392803    429.93592    5486.6962   -23696.793 
  492300   -95770.665   -84332.749     277.7951    20721    220921.66    104.05737   -87.881003    415.19958   -15.146452    423.58919    23.520358    22.174278     6.243005    429.83219    5494.7622   -23676.704 
  492400   -95689.571   -84279.759    277.11254    20721    221228.33     17.86515    101.88624    21.634539   -69.925328    423.70885    23.533354     22.18653    6.1831769    429.89202    5489.2716   -23711.191 
  492500   -95938.798   -84299.997    282.67406    20721    220817.25    60.617444    109.91988    111.45771   -39.525267    423.72827     23.51094      22.1654    6.1734661    429.90173    5480.3155   -23702.578 
  492600   -95865.393   -84329.807    280.16723    20721    220930.13   -49.725956   -127.16627    102.99686   -125.00846    423.72081    23.517156    22.171259    6.1771952      429.898    5512.1365   -23696.644 
  492700   -96015.305   -84308.048    284.33664    20721    221155.36   -83.474416   -116.18874    39.541293    -173.7758    424.00109    23.521362    22.175225    6.0370575    430.03814    5497.3072   -23698.414 
  492800   -95862.846   -84336.443    279.94422    20721    221321.28    30.243624   -41.458563    30.492869    101.69657    423.88628     23.53337    22.186546    6.0944592    429.98074    5514.7694   -23689.768 
  492900   -95803.303   -84281.685      279.828    20721    221501.36    16.186735   -32.600805   -60.726431    141.88744    424.55856    23.524295     22.17799    5.7583203    430.31688    5482.4898    -23703.88 
  493000   -95896.351    -84279.71    282.13584    20721    221581.11   -61.158597    10.943857    60.205956    -254.6256     424.7559    23.523063    22.176829    5.6596518    430.41555    5502.8844   -23722.467 
  493100   -95919.055   -84267.892    282.97427    20721    221461.65    15.721065    121.89918   -194.39591    119.65992    424.71152     23.51795    22.172008    5.6818394    430.39336    5515.4011   -23757.714 
  493200   -95761.457   -84237.223    279.89155    20721    221192.69   -13.385811    2.9591109   -198.17161    155.05507      424.376    23.512954    22.167298    5.8496001     430.2256    5531.2586   -23812.015 
  493300   -95730.593   -84221.809    279.51629    20721    221243.53     133.5898    263.69564   -136.88639    273.96014    424.31931    23.517227    22.171326    5.8779461    430.19725    5522.7906   -23823.812 
  493400   -95952.209   -84240.054    284.45559    20721    221583.14    68.167037   -165.87628     12.71999     357.6574    424.58238    23.527977    22.181461    5.7464078    430.32879    5531.3476   -23802.985 
  493500   -95780.985   -84271.686    279.52878    20721    221499.49   -87.700013   -232.63586   -202.17198     171.7078    424.39092    23.528841    22.182276    5.8421423    430.23306    5551.8403   -23787.259 
  493600   -95773.317   -84276.448    279.22691    20721    221462.78    70.938935    227.52668     14.79149   -29.501367    424.57956    23.521664     22.17551    5.7478196    430.32738    5554.5045   -23795.414 
  493700   -95817.146   -84262.275    280.63562    20721    221719.47    42.138443   -93.190351   -22.259092    241.86477    425.35258    23.513896    22.168186    5.3613076    430.71389    5545.8689   -23793.709 
  493800   -95727.396   -84270.008    278.26803    20721    221831.12    27.413702   -106.90907   -132.46316    321.61333    424.96418    23.530561    22.183898    5.5555082    430.51969    5544.9307   -23781.172 
  493900   -95750.012   -84307.281    277.91204    20721    221739.08    56.015058     10.25775    303.86735   -146.07993    424.73374     23.53206    22.185311    5.6707279    430.40447    5551.4426   -23758.361 
  494000   -95892.622   -84283.359    281.95664    20721    221529.89    1.2192701    31.603826    18.372669   -46.318684    424.73952    23.520798    22.174693    5.6678393    430.40736    5566.4335   -23805.725 
  494100    -95814.47   -84326.071    279.02122    20721    221593.86    40.243725    191.93618   -371.39292    300.18791    424.92957    23.518932    22.172934    5.5728129    430.50239    5563.8864     -23757.4 
  494200   -95907.401   -84293.722    282.06391    20721    221838.38   -25.455724     127.3527    16.763899   -220.48377    424.74196    23.537101    22.190063    5.6666202    430.40858    5560.6404   -23779.888 
  494300    -95772.29    -84301.41    278.59571    20721    221648.02    11.131817    -134.6157   -118.80674    286.81788    424.98887    23.520165    22.174097    5.5431673    430.53203    5572.9105   -23791.938 
  494400   -95745.046   -84303.107    277.89281    20721    221454.55    91.662078   -142.25362    114.94063    302.29922    424.93506    23.511386     22.16582    5.5700693    430.50513    5577.8337   -23807.948 
  494500   -95839.878   -84322.427     279.7268    20721    221666.35    99.668826   -55.724272      262.371    92.359753     424.9779    23.521441    22.175299    5.5486478    430.52655    5588.5767   -23794.292 
  494600   -95872.095    -84307.51    280.87153    20721    221654.51    4.9508188   -224.11851    -26.32731    265.29828     425.0232    23.519559    22.173526    5.5259994     430.5492    5598.4034    -23815.09 
  494700    -95860.65   -84339.683    279.81217    20721    221640.01    58.651387    20.063961    258.68413   -102.79393    424.83691    23.523946    22.177661    5.6191454    430.45605     5609.708   -23801.637 
  494800   -95936.534    -84313.87    282.28213    20721    221800.54   -65.190399    16.560844   -292.62665    80.494611    424.83411    23.532541    22.185764    5.6205461    430.45465    5565.9595   -23771.552 
  494900   -95870.248   -84301.159    280.98092    20721    221849.96    55.901416   -109.35853    189.10544    87.957341    424.81661    23.535647    22.188693    5.6292973     430.4459    5579.9085   -23803.415 
  495000    -95885.74   -84272.255     282.0592    20721    221643.43   -30.729478   -140.65522    87.532771   -39.065987    424.48353    23.533917    22.187062    5.7958325    430.27937    5550.8773   -23808.341 
  495100    -95810.97   -84231.107    281.24258    20721    221668.55   -82.416315   -153.96459   -71.443975   -21.840378    424.45916    23.535927    22.188956    5.8080223    430.26718    5555.2609   -23851.968 
  495200    -95931.34   -84261.892    283.41837    20721    221541.61   -143.59256   -87.409033    3.2795262   -346.64816    424.31639    23.533145    22.186333    5.8794061    430.19579    5553.8752   -23823.301 
  495300   -95804.533   -84227.546    281.17276    20721    221437.25   -5.5213734   -54.974723    40.537278   -2.1266745    424.85998    23.512545    22.166913    5.6076108    430.46759      5556.27   -23870.042 
  495400    -95906.82    -84269.85    282.62959    20721    221547.58    36.226058   -88.123551    97.207785     99.59394     425.0039    23.514419     22.16868    5.5356499    430.53955    5566.5847   -23843.033 
  495500    -95797.17   -84245.651    280.55421    20721    221684.97    88.983884    101.54564    94.141364    71.264644    424.76099    23.528434    22.181892    5.6571071    430.41809    5557.7789   -23854.995 
  495600   -95725.563   -84212.184    279.62789    20721    221870.87    6.3701638   -182.86701    78.953679    123.02382    424.98894    23.531984    22.185239    5.5431294    430.53207    5541.8928   -23865.637 
  495700   -95870.424   -84205.455     283.3096    20721    221648.14    -17.73078   -80.172946   -107.85288    134.83348    424.83017    23.524564    22.178244    5.6225156    430.45268    5529.5181   -23867.778 
  495800   -95786.668   -84214.166    281.06381    20721    222039.94    3.4221885    58.925476    145.89092   -194.54983    425.45572    23.528031    22.181512    5.3097409    430.76546    5533.8337   -23852.095 
  495900       -95781   -84226.599    280.62421    20721    221838.76    74.382285    26.161317    101.73037    95.255168    425.21749    23.523956    22.177671     5.428856    430.64634    5537.1089   -23854.142 
  496000   -95723.708   -84234.927    279.03048    20721    221535.97   -106.61408   -159.60688   -352.25395    192.01858    424.90093    23.516652    22.170785    5.5871373    430.48806    5543.4403    -23856.51 
  496100   -95795.862   -84224.203    281.04335    20721    221551.76    17.249355    2.1930947    227.06417    -177.5092      424.867     23.51843    22.172461    5.6041003     430.4711    5532.0344   -23864.086 
  496200   -95788.961   -84213.525    281.13509    20721    221567.28    36.683872    84.190494    83.456223     -57.5951    425.07837    23.513405    22.167723    5.4984141    430.57679    5540.5378    -23886.95 
  496300   -95907.555   -84188.582     284.6212    20721    221555.48    8.4699355    148.04283   -152.42985     29.79683    425.08017    23.512729    22.167086    5.4975147    430.57769    5523.0473   -23894.614 
  496400   -95810.728   -84209.675    281.75725    20721     221417.4    24.887649   -102.59807    71.645861    105.61516    424.86623    23.511318    22.165756     5.604483    430.47072    5524.5512   -23882.031 
  496500   -95923.573   -84215.838    284.34825    20721    221651.88   -187.51419   -225.37415   -199.47647   -137.69193    424.97274    23.520816    22.174711    5.5512308    430.52397      5538.16   -23873.908 
  496600     -95946.4   -84230.611    284.54386    20721    221651.88    55.676747    71.400185   -53.343711    148.97377    425.26708    23.512675    22.167035    5.4040586    430.67114    5532.1341   -23866.273 
  496700   -95844.784   -84295.399    280.50236    20721    221584.84   -67.198725   -146.09454   -139.06644    83.564812    425.06726    23.514644    22.168891     5.503971    430.57123    5551.5062   -23817.141 
  496800   -95953.861   -84265.593    283.87547    20721    221766.77   -169.64254   -201.92468   -89.955565   -217.04737     425.1414    23.522244    22.176056    5.4669001     430.6083    5554.6157   -23842.939 
  496900   -95957.953   -84269.132    283.88888    20721    221272.53   -73.587427   -128.19724    -70.95527   -21.609771    424.77126    23.506253    22.160981    5.6519693    430.42323    5547.1534   -23854.539 
  497000   -95901.822   -84310.824    281.51303    20721    221571.13    37.954883   -29.325713   -6.8063341     149.9967    425.07148      23.5138    22.168095    5.5018607    430.57334    5549.5703    -23810.72 
  497100   -95885.098   -84238.068    282.87391    20721    221575.61   -56.485544    5.8667235   -69.007606   -106.31575    425.00987    23.515742    22.169927    5.5326665    430.54253    5540.9713   -23873.132 
  497200   -95783.356   -84241.132    280.32846    20721    221323.86    37.811739    28.673965    67.621634    17.139618    424.57384    23.514444    22.168703    5.7506784    430.32452    5538.3978   -23879.296 
  497300   -95619.594   -84187.384    277.65652    20721    221390.15     111.0337   -31.619979      16.2882    348.43287    424.56353    23.518251    22.172292    5.7558335    430.31937    5535.4905   -23931.162 
  497400   -95821.009   -84234.872    281.39498    20721    221425.94    89.586063    110.92062    157.20037   0.63719966    424.06363    23.534011     22.18715    6.0057849    430.06942    5542.0201   -23893.205 
  497500    -95761.47   -84219.531    280.32153    20721    221227.52   -99.110691   -166.57101   -37.353656   -93.407407     424.0837    23.522907    22.176682    5.9957492    430.07945    5544.1643   -23908.895 
  497600   -95888.332   -84242.167     282.8529    20721    221334.81   -41.857463   -26.776491    28.151576   -126.94747    424.31454     23.52221    22.176024      5.88033    430.19487    5541.1246   -23885.297 
  497700    -95933.38   -84230.117    284.23964    20721    221487.93    17.994108    252.08288   -62.459837   -135.64072    424.19885    23.533553    22.186718    5.9381766    430.13702    5519.8616   -23875.291 
  497800   -95849.392   -84265.789    281.33344    20721    221203.92    118.31602   -118.99292    207.41611    266.52488    423.76969    23.530366    22.183714    6.1527575    429.92244    5550.6259   -23886.518 
  497900   -95877.791   -84247.083     282.4775    20721    221473.97   -5.9980351   -256.86294    306.04025   -67.171415    423.45012    23.553607    22.205625    6.3125401    429.76266    5550.4006    -23892.11 
  498000   -95793.949   -84240.131    280.61004    20721    221356.25    40.318245    122.56927    32.515043   -34.129574    423.42572    23.548025    22.200362    6.3247406    429.75046    5567.8176   -23921.015 
  498100   -95805.758   -84223.778    281.29403    20721    221309.95    128.52297    80.466654    44.006116    261.09614    423.43567    23.545286     22.19778    6.3197669    429.75543    5544.4065   -23919.709 
  498200   -95767.211   -84241.758    279.92113    20721    221198.48      -60.612    71.598367   -368.15211    114.71774    423.20819    23.545681    22.198152     6.433505    429.64169    5562.2158   -23917.935 
  498300   -95752.833   -84215.008    280.22162    20721     221229.9     47.79878   -9.2406139    154.30145   -1.6644939    423.30134    23.544762    22.197286     6.386929    429.68827    5561.2271   -23947.789 
  498400   -95897.812   -84278.443    282.20212    20721    221209.66    34.860761   -48.242591    3.5268692    149.29801     423.3832    23.541409    22.194124    6.3460002     429.7292    5604.1361   -23929.493 
  498500   -95892.601   -84269.036    282.30402    20721    221280.26    33.876232    45.377247    40.243945    16.007504    423.20232    23.550196    22.202409    6.4364399    429.63876    5603.7766   -23938.076 
  498600   -95863.645   -84249.526    282.07459    20721     221304.4    31.661384    42.537452    191.48639   -139.03969    423.44809    23.544645    22.197176    6.3135539    429.76165    5591.0429   -23945.626 
  498700   -95902.278   -84232.078    283.43663    20721    221096.18   -37.834521   -30.647129   -268.99918    186.14274    422.99832    23.546075    22.198523    6.5384385    429.53676    5587.0783   -23964.028 
  498800   -95761.125   -84251.359    279.54015    20721    221211.33    24.162684   -105.07887    29.172068    148.39486    422.89614    23.555051    22.206986    6.5895278    429.48567     5601.069    -23959.21 
  498900   -95850.037   -84298.673    280.55045    20721    221043.09   -37.909862   -49.466648   -110.79569    46.532752    422.79768    23.548833    22.201124    6.6387622    429.43644    5571.8869   -23887.249 
  499000   -95797.534   -84257.418    280.27723    20721     221071.3    23.998587   -245.72749    292.84487    24.878385    422.97628    23.545363    22.197852    6.5494581    429.52574    5572.7323   -23931.422 
  499100   -95872.983   -84296.712    281.15536    20721    221130.67    66.700348   -2.3029362    179.67965     22.72433    422.82387    23.552768    22.204834    6.6256666    429.44953    5578.0359   -23900.948 
  499200   -95824.535   -84265.269    280.74238    20721     221089.6     63.90168    58.378419    332.78513   -199.45851    422.81249    23.550898     22.20307    6.6313571    429.44384    5599.0263   -23956.224 
  499300   -95951.679   -84294.978    283.10877    20721    221284.51   -57.289622   -108.71101    99.819173   -162.97703    423.19513    23.550623    22.202811     6.440036    429.63516    5618.6483   -23936.078 
  499400   -95744.044   -84307.837    277.75361    20721    221115.16    33.356965    33.962052   -10.837448    76.946292    423.19283    23.541673    22.194374    6.4411871    429.63401    5614.7029   -23929.908 
  499500   -95904.075   -84326.545    281.18594    20721    220876.43   -44.578995    -132.2695    108.74444   -110.21192    422.81509    23.539469    22.192296    6.6300565    429.44514    5614.9519   -23915.917 
  499600   -96012.176   -84344.811    283.36779    20721    220976.07   -39.836333    -112.8481    222.10115   -228.76206    422.81629    23.544745    22.197269    6.6294533    429.44575    5622.0172    -23906.83 
  499700   -95976.949   -84325.671    282.97709    20721    220987.94      -53.003    99.872242    119.08373   -377.96498    423.31955    23.531377    22.184667    6.3778257    429.69737    5630.3963    -23934.14 
  499800   -95779.432   -84333.576    277.98795    20721    220623.43    71.947573   -91.987138    236.36407    71.465785    422.81225    23.526063    22.179657    6.6314728    429.44373    5608.1807   -23920.715 
  499900   -95837.658   -84277.966     280.7527    20721    220766.54   -1.0337283    150.24878    72.057443   -225.40741    422.97902    23.529052    22.182475    6.5480895    429.52711    5607.6597    -23969.97 
  500000   -95907.762    -84335.27    281.06359    20721    220397.07   -63.278666   -32.045031   -19.488651   -138.30232    422.88203    23.512051    22.166447    6.5965868    429.47861    5628.1644   -23946.725 
Loop time of 51849.1 on 32 procs for 500000 steps with 20721 atoms

Performance: 1.666 ns/day, 14.403 hours/ns, 9.643 timesteps/s
97.3% CPU use with 32 MPI tasks x no OpenMP threads

MPI task timing breakdown:
Section |  min time  |  avg time  |  max time  |%varavg| %total
---------------------------------------------------------------
Pair    | 6498.9     | 9194.4     | 13065      |2519.4 | 17.73
Bond    | 0.38645    | 0.49418    | 0.58817    |   7.1 |  0.00
Kspace  | 7924.4     | 11810      | 14520      |2235.4 | 22.78
Neigh   | 8428.2     | 10410      | 12168      |1343.4 | 20.08
Comm    | 449.51     | 3882.6     | 7836.4     |4383.8 |  7.49
Output  | 5.2429     | 46.26      | 74.521     | 373.9 |  0.09
Modify  | 12947      | 16467      | 21606      |2472.6 | 31.76
Other   |            | 38.42      |            |       |  0.07

Nlocal:    647.531 ave 704 max 601 min
Histogram: 3 2 4 10 2 1 1 5 1 3
Nghost:    7416.69 ave 7895 max 7006 min
Histogram: 3 3 8 4 1 2 1 2 4 4
Neighs:    239036 ave 277675 max 214719 min
Histogram: 5 6 10 0 0 1 1 4 3 2
FullNghs:  478072 ave 555201 max 429958 min
Histogram: 5 5 11 0 1 0 0 6 0 4

Total # of neighbors = 15298299
Ave neighs/atom = 738.299
Ave special neighs/atom = 2
Neighbor list builds = 500000
Dangerous builds not checked
write_data production.R1
PPPM initialization ...
  extracting TIP4P info from pair style
WARNING: Using 12-bit tables for long-range coulomb (../kspace.cpp:316)
  G vector (1/distance) = 0.345967
  grid = 400 48 48
  stencil order = 5
  estimated absolute RMS force accuracy = 0.000400756
  estimated relative force accuracy = 1.20686e-06
  using double precision FFTs
  3d grid and FFT values/proc = 67260 38400
write_restart restartproduction.R1
PPPM initialization ...
  extracting TIP4P info from pair style
WARNING: Using 12-bit tables for long-range coulomb (../kspace.cpp:316)
  G vector (1/distance) = 0.345967
  grid = 400 48 48
  stencil order = 5
  estimated absolute RMS force accuracy = 0.000400756
  estimated relative force accuracy = 1.20686e-06
  using double precision FFTs
  3d grid and FFT values/proc = 67260 38400
Total wall time: 14:24:09
