LAMMPS (30 Jul 2016)
# Sets up LAMMPS simulation for transient melting of ice: TIP4P/Ice
# Ensure cold thermostats do not move
# Thinbox: 16x1x1
# Defects
# Order param l=2

#### setting MD parameters ####
units real
boundary p p p
atom_style full

# read ice box in restart file
#read_data ice-ih-restart.data
read_restart restart.state
  orthogonal box = (0.461117 0.0248825 0.0234585) to (435.614 23.5063 22.161)
  32 by 1 by 1 MPI processor grid
  20736 atoms
  13824 bonds
  6912 angles
  2 = max # of 1-2 neighbors
  1 = max # of 1-3 neighbors
  1 = max # of 1-4 neighbors
  2 = max # of special neighbors

#replicate 16 boxes, 16x1x1


#### force field definition ####
pair_style      lj/cut/tip4p/long 2 1 1 1 0.1577 10.0
pair_modify	tail yes

kspace_style	pppm/tip4p 1.0e-6

bond_style	harmonic
angle_style	harmonic
dihedral_style	none
improper_style	none

bond_coeff	1 450.0 0.9572
angle_coeff	1 55.0 104.52


# reset pair coeff
pair_coeff	* * 0.0 0.0

#OO
pair_coeff	2 2 0.21085 3.1668
#OH
pair_coeff	* 1 0.0000 0.0000

neighbor        2.0 bin
neigh_modify    every 1 delay 1 check no

timestep	2.0
fix		constraints all shake 0.000001 20 0 b 1 a 1
  0 = # of size 2 clusters
  0 = # of size 3 clusters
  0 = # of size 4 clusters
  6912 = # of frozen angles

group water type 1 2
20736 atoms in group water

#*********** SIMULATION PARAMETER TO ADJUST ****************
#Box dimensions
variable lx equal lx
variable ly equal ly
variable lz equal lz

### Temperature of the hot and cold regions ####
variable thi equal 375
variable tlo equal 215
variable runpressure equal 0.986923
# Configuration equilibrated in density and temperature

# Define dx here

variable lx equal lx
variable ly equal ly
variable lz equal lz

variable xlo equal xlo
variable xhi equal xhi


variable dx equal 2.0

### ADD IN DEFECTS AT THE CENTRE OF THE HOT THERMOSTAT ###
variable x1 equal ${lx}/4.0
variable x1 equal 435.152965595667/4.0
variable y1 equal ${ly}/2.0
variable y1 equal 23.4814350002581/2.0
variable z1 equal ${lz}/2.0
variable z1 equal 22.1375830711239/2.0

region kill1 sphere ${x1} ${y1} ${z1} 3
region kill1 sphere 108.788241398917 ${y1} ${z1} 3
region kill1 sphere 108.788241398917 11.740717500129 ${z1} 3
region kill1 sphere 108.788241398917 11.740717500129 11.0687915355619 3
delete_atoms region kill1 compress no bond yes mol yes
Deleted 15 atoms, new total = 20721
Deleted 10 bonds, new total = 13814
Deleted 5 angles, new total = 6907




variable thip equal ${thi}*2.0/3.0
variable thip equal 375*2.0/3.0
variable tlop equal ${tlo}*2.0/3.0
variable tlop equal 215*2.0/3.0
variable cbl equal ${lx}*3.0/4.0-${dx}
variable cbl equal 435.152965595667*3.0/4.0-${dx}
variable cbl equal 435.152965595667*3.0/4.0-2
variable cbh equal ${lx}*3.0/4.0+${dx}
variable cbh equal 435.152965595667*3.0/4.0+${dx}
variable cbh equal 435.152965595667*3.0/4.0+2
variable hbl equal ${lx}*1.0/4.0-${dx}
variable hbl equal 435.152965595667*1.0/4.0-${dx}
variable hbl equal 435.152965595667*1.0/4.0-2
variable hbh equal ${lx}*1.0/4.0+${dx}
variable hbh equal 435.152965595667*1.0/4.0+${dx}
variable hbh equal 435.152965595667*1.0/4.0+2


#***************************************************
## EQUILIBRATION PERIOD - to reach the steady state ###
#run 0

#reset the timestep to start your production run
reset_timestep 0

# define a group to perform averages
#group s1 type 1
###*** SYSTEM THERMOSTATTING: HOT and COLD regions ***###

fix NVE all nve
fix PRESS all press/berendsen aniso ${runpressure} ${runpressure} 500000 couple yz
fix PRESS all press/berendsen aniso 0.986923 ${runpressure} 500000 couple yz
fix PRESS all press/berendsen aniso 0.986923 0.986923 500000 couple yz


### Apply THERMOSTATS ###

#set up the "hot region" in the middle of the box
region hot block ${hbl} ${hbh} 0 ${ly} 0 ${lz} units box
region hot block 106.788241398917 ${hbh} 0 ${ly} 0 ${lz} units box
region hot block 106.788241398917 110.788241398917 0 ${ly} 0 ${lz} units box
region hot block 106.788241398917 110.788241398917 0 23.4814350002581 0 ${lz} units box
region hot block 106.788241398917 110.788241398917 0 23.4814350002581 0 22.1375830711239 units box


#set up the "cold region" at the left end of the box
region cold block ${cbl} ${cbh} 0 ${ly} 0 ${lz} units box
region cold block 324.36472419675 ${cbh} 0 ${ly} 0 ${lz} units box
region cold block 324.36472419675 328.36472419675 0 ${ly} 0 ${lz} units box
region cold block 324.36472419675 328.36472419675 0 23.4814350002581 0 ${lz} units box
region cold block 324.36472419675 328.36472419675 0 23.4814350002581 0 22.1375830711239 units box

#set up the "cold region" at the right end of the box
#region cold2 block ${h2bl} ${xhi} 0 ${ly} 0 ${lz} units box


#Cold regions  unification
#region cold union 2 cold1 cold2 units box

#Create group of cold molecules
####group cool_ice region cold
####group cool_ice include molecule

####compute cold_temp cool_ice temp
####fix cold_rescale water temp/rescale 1 ${tlo} ${tlo} 0.0001 1.0
####fix_modify cold_rescale temp cold_temp

#this calculates the temperature using only the atoms in the "hot region"
#compute hot_temp all temp/region hot

# calculate the temperature using only WATER in the "hot region"
compute hot_temp water temp/region hot

#this calculates the temperature using only WATER in the "cold region"
compute cold_temp water temp/region cold


#set up a basic velocity rescale for the hot region WATER with thip
fix hot_rescale water temp/rescale 1 ${thip} ${thip} 1.0 1.0
fix hot_rescale water temp/rescale 1 250 ${thip} 1.0 1.0
fix hot_rescale water temp/rescale 1 250 250 1.0 1.0
#change the thermostat to only act on the "hot region"
#this is done by passing it the "hot temp" compute that we defined above
fix_modify hot_rescale temp hot_temp

#set up a basic velocity rescale for the cold region
fix cold_rescale water temp/rescale 1 ${tlop} ${tlop} 1.0 1.0
fix cold_rescale water temp/rescale 1 143.333333333333 ${tlop} 1.0 1.0
fix cold_rescale water temp/rescale 1 143.333333333333 143.333333333333 1.0 1.0
#change the thermostat to only act on the "cold region"
#this is done by passing it the "cold temp" compute that we defined above
fix_modify cold_rescale temp cold_temp

### Ensure MOMENTUM CONSERVATION ###

#ensure that linear momentum is conserved despite the "thermostatting" by velocity rescaling
fix cons_mom all momentum 1 linear 1 1 1


thermo 100
thermo_style custom step pe etotal temp atoms vol press pxx pyy pzz lx ly lz xlo xhi f_cold_rescale f_hot_rescale

group ox type 2
6907 atoms in group ox
group hy type 1
13814 atoms in group hy
compute KE all ke/atom
variable TEMP atom c_KE*4186.8/(1.3806488*6.02214129)

compute cc1 all chunk/atom bin/1d x center 2 units box
#fix TPROFILE all ave/chunk 1 500 500 cc1 v_TEMP density/number file temp.dat
fix TPROFILEox ox ave/chunk 1 500 500 cc1 v_TEMP density/number file temp-ox.dat
fix TPROFILEhy hy ave/chunk 1 500 500 cc1 v_TEMP density/number file temp-hy.dat

compute orderparam ox orientorder/atom degrees 1 2 nnn 4 cutoff 3.5
compute cc2 ox chunk/atom bin/1d x center 2 units box
#fix ORDERPARAM all ave/chunk 1 500 500 cc2 c_orderparam[1] file order-param.dat
fix ORDERPARAM all ave/chunk 1 500 500 cc2 c_orderparam[1] file order-param.dat

restart 50000 config.restart

run 500000
PPPM initialization ...
  extracting TIP4P info from pair style
WARNING: Using 12-bit tables for long-range coulomb (../kspace.cpp:316)
  G vector (1/distance) = 0.345608
  grid = 405 48 48
  stencil order = 5
  estimated absolute RMS force accuracy = 0.000405786
  estimated relative force accuracy = 1.22201e-06
  using double precision FFTs
  3d grid and FFT values/proc = 67260 38880
Neighbor list info ...
  2 neighbor list requests
  update every 1 steps, delay 1 steps, check no
  max neighbors/atom: 2000, page size: 100000
  master list distance cutoff = 12.3154
  ghost atom cutoff = 12.3154
  binsize = 6.1577 -> bins = 71 4 4
Memory usage per processor = 12.7812 Mbytes
Step PotEng TotEng Temp Atoms Volume Press Pxx Pyy Pzz Lx Ly Lz Xlo Xhi cold_res hot_resc 
       0   -103747.04    -94901.24    214.83976    20721    226202.18    187.15717    157.24758    142.80367    261.42026    435.15297    23.481435    22.137583    0.4611172    435.61408            0            0 
     100   -103653.41    -94604.49    219.77306    20721    226439.45    16.518613    225.99862    67.697023    -244.1398     435.3944    23.487232    22.143048    0.3404012     435.7348   -18.504159   -275.65409 
     200   -103493.01   -94554.649    217.08782    20721     226447.7   -36.979623    -209.9512    69.620839    29.391489    435.32635    23.489496    22.145183   0.37442562    435.70077   -16.626951   -324.51731 
     300    -103577.3   -94524.352    219.87089    20721    226538.88   -60.323394   -19.754727    124.52308   -285.73854    435.09418    23.500492    22.155549   0.49050851    435.58469   -5.9314883   -363.34315 
     400   -103549.16   -94492.378    219.96407    20721    226514.05   -40.799841    193.92065   -333.63159    17.311411    435.37297    23.491679    22.147241    0.3511151    435.72408   -12.705943   -390.61579 
     500   -103584.02   -94464.459    221.48871    20721    226525.98   -50.478748     6.471247    34.607922   -192.51541    435.34877     23.49295     22.14844   0.36321339    435.71199   -3.9629066   -427.13569 
     600   -103446.79   -94399.814    219.72582    20721     226522.5    28.392793    31.183611   -89.623022    143.61779    435.31185    23.493766    22.149209   0.38167295    435.69353    -13.61015   -485.72506 
     700   -103357.35   -94319.538    219.50331    20721     226523.2    41.268521    39.578848   -24.399868    108.62658    435.34782    23.492832    22.148328   0.36368835    435.71151   -10.263885    -570.1913 
     800   -103453.26   -94314.487    221.95529    20721    226595.42   -16.442615   -20.366396   -82.106332    53.144884    435.23148    23.499717    22.154819   0.42186012    435.65334   -14.110815   -569.32228 
     900    -103413.3   -94282.294    221.76667    20721    226589.41    21.508502    15.199229    265.78162   -216.45535    435.19182    23.500476    22.155534   0.44168932    435.63351   -16.301985   -600.76929 
    1000   -103452.31   -94304.127    222.18376    20721    226562.25    19.870498    -47.67249    275.22528    -167.9413    435.36425    23.494413    22.149819   0.35547337    435.71973   -7.8595432    -588.7455 
    1100   -103361.26   -94258.284    221.08594    20721       226376    47.787363    41.146338    -133.7625    235.97825    435.26432    23.487451    22.143254   0.40544201    435.66976    -20.37356   -629.11853 
    1200   -103347.58   -94206.624    222.00846    20721    226486.81   -4.8357777    28.186343    19.411119   -62.104795    435.29778    23.492295    22.147821   0.38870826    435.68649   -19.054389   -677.59675 
    1300   -103357.02    -94199.86     222.4018    20721    226472.65    23.780738    200.46929   -168.76456    39.637482    435.25168    23.492805    22.148302   0.41176023    435.66344   -11.889147   -693.93909 
    1400   -103300.48   -94121.793     222.9247    20721    226362.13     3.172348   -106.90815    275.08091   -158.65572    435.07398    23.491868    22.147419   0.50061034    435.57459   -28.013287   -759.38146 
    1500    -103333.2   -94073.677     224.8879    20721    226381.68    44.823035    107.75757   -24.627322     51.33886    435.10256     23.49211    22.147647   0.48631905    435.58888   -17.615906      -818.99 
    1600   -103231.07   -94036.672    223.30619    20721    226428.87    -29.20176   -43.523792   -85.600604    41.519117    435.12327       23.494    22.149429   0.47596257    435.59924   -14.911809   -855.83245 
    1700   -103258.36   -94032.866    224.06164    20721    226435.79    35.797311   -107.28046    11.195532    203.47686    435.14583     23.49375    22.149193    0.4646834    435.61052   -32.078419   -845.01281 
    1800   -103266.83   -94030.868    224.31579    20721    226445.35   -50.146574    42.000669   -130.16295   -62.277441    434.94829     23.49958     22.15469   0.56345282    435.51175   -18.527327   -856.82582 
    1900   -103218.83   -93979.426    224.39944    20721    226384.68   -5.7050518   -101.53336    13.812957    70.605244    435.22191    23.489045    22.144757   0.42664259    435.64856   -41.660828   -889.54319 
    2000   -103285.74   -93977.941     226.0604    20721    226523.97    18.173342    74.212505   -37.880394    18.187915     435.1263    23.498851    22.154002   0.47444878    435.60075   -42.280191   -891.29436 
    2100   -103274.31   -93955.012    226.33974    20721    226448.47   -18.668949    18.225821   -85.257195    11.024527    434.92326    23.500418     22.15548   0.57597048    435.49923   -45.150743   -911.85916 
    2200   -103183.15   -93915.125    225.09456    20721    226493.52    31.873587     -17.8404    47.640621    65.820539    435.06482    23.498932    22.154078   0.50518989    435.57001   -32.448038   -964.34403 
    2300   -103256.76   -93920.037    226.76303    20721     226447.8   -35.799076    141.83276   -81.157391    -168.0726    435.15731    23.494063    22.149488   0.45894636    435.61625   -31.367457   -960.29877 
    2400    -103189.5    -93893.87    225.76501    20721    226400.82    6.0713953    41.828436   -39.103378    15.489128      435.046     23.49463    22.150023   0.51459772     435.5606   -33.884601    -987.4241 
    2500   -103193.24     -93871.9    226.38929    20721    226535.47    71.034085    271.89166   -20.666869   -38.122539    435.22176     23.49687    22.152135    0.4267186    435.64848   -44.226617   -999.83643 
    2600   -103073.26   -93882.074    223.22837    20721    226366.23    90.974596    289.40471   -236.37268    219.89176    435.18297    23.489138    22.144846   0.44611605    435.62908   -40.560942   -1000.7608 
    2700   -103132.21   -93877.609    224.76843    20721    226402.24   -32.805007   -38.322368    196.58874   -256.68139    435.22193    23.489955    22.145616   0.42663364    435.64857   -31.434382   -1008.7456 
    2800   -103098.62   -93813.479    225.51031    20721    226495.58    37.441744   -28.744155    385.24536   -244.17598    435.29304    23.492878    22.148371   0.39108167    435.68412   -14.384122   -1092.2262 
    2900    -103115.4   -93828.828    225.54483    20721    226479.08   -13.351878    42.660992    -62.96446   -19.752167    435.43745    23.488126    22.143891   0.31887375    435.75633   -23.069507   -1066.7262 
    3000   -103087.19   -93779.273    226.06331    20721    226353.76    16.690165    11.687874   -43.614713    81.997333    435.14649    23.489476    22.145164   0.46435745    435.61084   -34.915285   -1109.7762 
    3100   -103205.52   -93819.774    227.95358    20721    226509.14    -4.848792    46.972688   -5.9993384   -55.519726    435.08749     23.49913    22.154265   0.49385361    435.58135   0.34603741   -1101.2865 
    3200   -103083.48   -93776.083    226.05073    20721    226324.45    11.877303    59.089228   -163.89548    140.43815     435.2328    23.485626    22.141534   0.42120005      435.654   -19.588673   -1130.8056 
    3300    -103101.5   -93760.236    226.87332    20721    226570.76   -1.8553131   -245.36112   -152.99377    392.78895    435.32467    23.495923    22.151242   0.37526568    435.69993    -26.78231   -1135.4258 
    3400   -103092.54   -93748.208    226.94779    20721    226468.12   -54.426082   -125.75726    105.64519   -143.16618    435.30129    23.491231    22.146818   0.38695513    435.68824   -10.169578     -1164.87 
    3500   -103022.38   -93727.702    225.74178    20721    226438.14     59.62269    124.05406    -39.50525    94.319256    435.19312    23.492595    22.148104   0.44104028    435.63416   -36.490717   -1164.9468 
    3600   -102976.23   -93696.011    225.39056    20721    226504.32   -14.406896    49.030484    219.10729   -311.35846    435.03541    23.500287    22.155356   0.51989696     435.5553   -41.266815   -1187.6212 
    3700   -103122.64   -93702.828    228.78088    20721    226621.86   -29.663093   -62.798318    8.4544172   -34.645379    435.61206    23.490819     22.14643   0.23156984    435.84363   -26.812515   -1196.6088 
    3800    -103071.7   -93689.434    227.86918    20721       226610    6.7458432    115.92212   -20.307936   -75.376656    435.41945      23.4954    22.150749   0.32787583    435.74732   -12.004221   -1226.2458 
    3900   -102966.48   -93655.827    226.12991    20721    226721.79    42.781066    16.427889    55.058081    56.857229    435.25913    23.505522    22.160292   0.40803327    435.66717    -23.84668   -1245.8099 
    4000   -102939.46   -93595.687    226.93413    20721    226739.47    71.686273   -19.602806    77.979839    156.68179    435.56031     23.49831    22.153493   0.25744717    435.81775   -13.984553   -1317.3753 
    4100   -103006.93    -93610.19     228.2207    20721    226699.79    13.351415   -3.3129463   -70.110062    113.47725    435.54589    23.496643    22.151921   0.26465623    435.81054   -18.944281   -1296.3132 
    4200   -103065.97   -93595.675    230.00706    20721    226557.05   -4.8405124    15.370072   -22.413277   -7.4783316    435.28072    23.496398     22.15169   0.39723773    435.67796   -24.459908   -1311.3929 
    4300   -102927.57   -93607.374    226.36169    20721     226668.6    67.900728    84.024925    123.84884   -4.1715766    435.41867    23.498458    22.153632   0.32826521    435.74693   -3.7095614   -1318.9222 
    4400   -102919.38   -93592.553    226.52262    20721    226631.47    66.753657    87.200211    210.99115   -97.930396    435.42391    23.496392    22.151685   0.32564658    435.74955   -30.910735   -1309.5246 
    4500      -103034   -93571.375     229.8208    20721    226699.43    -45.46322   -97.139195   -98.314416    59.063951    435.60934    23.494913    22.150289   0.23293115    435.84227   -38.162346   -1317.3218 
    4600   -102967.06   -93564.045     228.3731    20721    226550.96    54.531755     130.6768   -203.75199    236.67045    435.34537    23.494338    22.149747   0.36491452    435.71029   -40.871766   -1329.7215 
    4700   -102970.68    -93566.87    228.39224    20721    226380.03    -76.59717   -116.76914    -96.99391   -16.028461    435.13678    23.491101    22.146696   0.46920872    435.60599   -39.576401    -1328.482 
    4800   -102923.46   -93525.012    228.26208    20721    226441.98    17.465355    149.17806   -29.600363   -67.181635    435.27802    23.490503    22.146132   0.39858967    435.67661   -36.405921   -1378.0315 
    4900   -102973.24   -93516.795    229.67066    20721    226547.96   -81.998806   -111.01695    115.63038   -250.60984    435.27775    23.496007    22.151321   0.39872599    435.67647   -18.793397    -1396.776 
    5000   -102967.63   -93484.697    230.31399    20721    226471.83    -6.566808   -59.691624   -147.29685    187.28805    435.22094    23.493592    22.149044   0.42712911    435.64807   -42.610902   -1412.4641 
    5100   -102978.64   -93525.215    229.59723    20721    226643.14    4.3142224    174.59902    -156.0486   -5.6077595    435.33695    23.499344    22.154467   0.36912677    435.70607   -26.330983   -1385.6578 
    5200   -102907.79   -93487.068    228.80314    20721    226516.08   -2.8270745   -16.851521    39.972457    -31.60216    435.15764    23.497596    22.152819   0.45877909    435.61642   -19.506792   -1432.4547 
    5300   -102936.48   -93477.902    229.72239    20721     226446.3   -68.072994    30.381007   -393.45625    158.85626    435.15372    23.494082    22.149506   0.46073895    435.61446   -28.275945   -1434.1332 
    5400   -102943.21   -93434.902    230.93024    20721    226554.17   -33.319395   -21.697348   -168.47475    90.213912    435.07698     23.50175    22.156735   0.49910968    435.57609   -43.110592   -1462.5128 
    5500   -102884.31   -93407.489    230.16547    20721    226683.63   -6.5761658    112.89588   -49.746552   -82.877827    435.21687    23.504685    22.159502    0.4291671    435.64603   -22.386317   -1507.8356 
    5600    -102958.3   -93430.368    231.40696    20721    226458.89   -71.325424    5.2045476   -85.553948   -133.62687    435.06829    23.497042    22.152297   0.50345652    435.57174   -15.265881   -1495.6475 
    5700   -102917.05   -93401.125    231.11525    20721    226574.94   -64.825037   -286.68901     166.2031   -73.989202    435.37969    23.494655    22.150046   0.34775588    435.72744   -38.022898   -1502.4471 
    5800   -102846.77   -93381.445    229.88628    20721    226655.97    36.238761  -0.90579816    84.176375    25.445706    435.30715    23.500813    22.155852   0.38402688    435.69117   -33.569669   -1529.4322 
    5900   -102910.84   -93370.986    231.69637    20721    226699.39    89.094871    70.100309     169.8892    27.295105    435.12068      23.5081    22.162722   0.47726234    435.59794   -52.148649   -1523.2042 
    6000   -102811.63   -93368.623    229.34435    20721     226697.5    35.896638    1.0967838    65.203787    41.389343    435.21536    23.505445    22.160219   0.42991866    435.64528   -24.368969   -1550.3316 
    6100   -102868.34   -93393.083    230.12767    20721    226770.72    2.1039422   -139.79068   -171.83986    317.94237    435.12119    23.511784    22.166195   0.47700316     435.5982   -16.034074   -1533.1774 
    6200   -102803.34   -93382.077     228.8163    20721    226626.84    1.6991926   -84.772098   -363.58855    453.45823    435.32642    23.498783    22.153938   0.37439022    435.70081   -17.986596   -1547.0757 
    6300    -102834.7   -93336.362    230.68816    20721    226711.09    106.90172    35.353413    63.710735    221.64103    435.29701    23.503945    22.158804   0.38909638     435.6861   -25.333766   -1589.4585 
    6400   -102853.12   -93348.368    230.84396    20721    226514.88   -31.860517    76.695544    220.77388   -393.05097      435.106    23.498928    22.154075   0.48459927     435.5906    -19.52353   -1582.4015 
    6500   -102945.92    -93351.77    233.01509    20721    226721.73    -36.46071    45.624926    298.13519   -453.14225    435.17992    23.507658    22.162305   0.44764136    435.62756   -9.2396836   -1585.6319 
    6600   -102778.22   -93290.243    230.43642    20721    226482.13    65.323853   -8.4251583    230.86704   -26.470326    435.03235    23.499218    22.154348   0.52142544    435.55377   -39.683825   -1628.6031 
    6700   -102831.19   -93270.661    232.19865    20721    226717.92   -10.516887    9.8342434   -147.20141    105.81651    435.30609    23.504054    22.158907    0.3845556    435.69064   -40.865353   -1637.8532 
    6800   -102711.07   -93180.475    231.47147    20721    226530.83   -28.149292    91.023338   -280.00779    104.53658    435.11717    23.499453     22.15457   0.47901707    435.59618   -54.665848   -1719.3791 
    6900   -102824.59   -93243.989    232.68616    20721    226703.27    53.499489   -23.517085    324.14655     -140.131    435.25785    23.504597    22.159419   0.40867459    435.66653   -34.150117   -1676.9952 
    7000   -102757.08   -93201.247    232.08445    20721    226578.25   -41.159879    -45.72626   -166.23173     88.47835    435.30791    23.496764    22.152034   0.38364609    435.69155   -48.301834   -1705.6006 
    7100   -102709.83   -93207.007    230.79705    20721    226639.55    62.434288    41.950413   -87.518714    232.87116    435.29294    23.500346    22.155412   0.39113085    435.68407   -42.267711   -1709.0025 
    7200   -102710.04   -93229.939    230.24511    20721    226545.68    37.710283    66.741229   -1.8439691    48.233589     435.2099     23.49772    22.152936   0.43264782    435.64255   -34.254925   -1695.6465 
    7300   -102777.99   -93182.851    233.03926    20721    226746.26    -35.41197   -181.34215   -63.503042    138.60929    435.49072     23.50054    22.155594   0.29224143    435.78296   -40.083532   -1729.8425 
    7400   -102753.08   -93165.645    232.85205    20721    226686.95   -56.897852   -11.997871    70.169641   -228.86533     435.4211    23.499344    22.154467    0.3270513    435.74815   -23.813832   -1763.9648 
    7500   -102790.95   -93145.318    234.26543    20721    226824.36   -72.934562    59.452158   -9.5011855   -268.75466    435.59129    23.501873    22.156851   0.24195693    435.83324   -28.928574   -1776.6004 
    7600   -102782.41     -93122.6    234.60993    20721    226622.48     15.84155    14.519447   -240.99822    274.00343    435.28651    23.499634    22.154741   0.39434487    435.68086   -17.040534   -1824.5777 
    7700   -102701.05   -93128.821    232.48285    20721    226580.69    27.806898    87.057332   -110.41287    106.77623        435.3    23.497103    22.152355   0.38760051     435.6876    4.0840352   -1839.5824 
    7800   -102726.14   -93110.908    233.52726    20721    226747.27   -87.070073   -49.906301   -379.87439    168.57047    435.38309    23.503496    22.158382   0.34605375    435.72915   -9.4745887   -1836.4379 
    7900   -102685.13   -93125.745    232.17081    20721    226487.63   -42.265431   -25.379235   -88.314568   -13.102491    435.24904    23.493653    22.149102   0.41307828    435.66212   -7.5621031   -1833.3157 
    8000   -102652.59   -93035.917    233.56211    20721    226703.46   -14.490122    80.391552    12.869207   -136.73112    435.51397    23.497694    22.152912   0.28061641    435.79458   -25.305357   -1901.9257 
    8100   -102662.03   -93061.212    233.17712    20721    226707.22    69.039099   -131.50791    319.47341    19.151805     435.2979     23.50372    22.158593   0.38865155    435.68655   -24.498893   -1881.7464 
    8200   -102634.76    -93076.65    232.13997    20721    226584.63    100.03551    143.88574    97.565692    58.655105    435.30076    23.497287    22.152528   0.38722147    435.68798   -38.726811   -1858.4186 
    8300   -102626.19   -93049.104    232.60078    20721    226550.56    73.016704    122.05799    4.4945284    92.497596    435.54581     23.48891    22.144631     0.264696     435.8105   -24.638623   -1902.1026 
    8400   -102627.74   -93022.705    233.27965    20721    226667.76   -48.302716    38.480931   -140.13883   -43.250247    435.51897    23.495709     22.15104   0.27811578    435.79708   -16.843658   -1927.7919 
    8500   -102633.84    -92981.23    234.43501    20721    226743.12   -55.567662    19.631196   -225.41961    39.085427    435.40105    23.502797    22.157722   0.33707321    435.73813   -28.634434   -1953.0989 
    8600   -102444.09   -92963.369    230.26027    20721    226435.51    95.775595    119.61672   -116.07963    283.78969    434.91384         23.5    22.155086   0.58067926    435.49452   -47.041785   -1971.1692 
    8700   -102587.36    -92974.68    233.46515    20721    226561.53   -36.193471    31.490038    105.22973   -245.30018    435.21573    23.498385    22.153563   0.42973648    435.64546    -41.20297   -1959.3158 
    8800    -102572.1   -92951.484    233.65799    20721    226570.38    47.122034    89.599256     182.2372   -130.47036    435.33732    23.495562    22.150901   0.36894029    435.70626   -35.956405   -1992.0095 
    8900   -102624.21   -92925.627    235.55166    20721     226763.4   -35.592478    11.690153   -94.938136   -23.529452    435.19743    23.509345    22.163896   0.43888516    435.63631   -57.504228   -1986.8839 
    9000   -102562.77    -92930.45    233.94227    20721    226580.85    1.7471783   -9.3953126   -74.130697    88.767544    435.20409    23.499701    22.154803   0.43555618    435.63964   -29.858577   -2018.1221 
    9100   -102530.63   -92893.531    234.05833    20721    226626.14    32.120531    91.836618    154.57211   -150.04713    435.27678    23.500087    22.155167   0.39921015    435.67599   -57.634505   -2029.6349 
    9200   -102560.31   -92942.711    233.58461    20721    226735.82    78.035655    223.30728    197.76001   -186.96033    435.37253    23.503187    22.158091   0.35133328    435.72387   -20.514911   -2018.0027 
    9300    -102493.9   -92959.269     231.5696    20721    226824.87    67.864067    108.34627    11.493744     83.75219    435.22233    23.511859    22.166266   0.42643401    435.64877   -12.692676   -2006.7895 
    9400    -102565.6   -92935.702    233.88332    20721    226694.21   -47.610398    20.436451   -80.022515   -83.245131    435.33653    23.502003    22.156974   0.36933549    435.70586   -9.9673032    -2031.975 
    9500   -102646.12   -92905.521    236.57197    20721     226775.8   -102.11945   -205.93032   -137.94864    37.520624     435.2804    23.507747    22.162389   0.39740025     435.6778   -14.117586   -2055.3494 
    9600   -102648.12   -92933.482    235.94159    20721    226665.74   -56.750531   -43.778988    145.49938   -271.97199    435.04892    23.508294    22.162905   0.51313897    435.56206   -6.0802857   -2041.8425 
    9700   -102553.98   -92932.778     233.6723    20721    226553.13    36.862511     141.5262    43.040543   -73.979206    435.35531    23.494182      22.1496   0.35994731    435.71525    4.9199625   -2061.2665 
    9800   -102523.66   -92905.575    233.59639    20721    226586.39    -26.53119   -101.07923   -143.44008    164.92574    435.20488    23.499967    22.155054   0.43515888    435.64004    19.880988    -2100.304 
    9900    -102519.7   -92881.893    234.07551    20721    226767.28    57.982728    98.855479    8.7909244    66.301781    435.24127    23.508362    22.162969   0.41696339    435.65824    2.8011566   -2106.7621 
   10000   -102463.95   -92854.926    233.37643    20721    226857.85    60.450115    39.120975    4.4360029    137.79337    435.57126    23.504148    22.158996   0.25196832    435.82323    11.017523   -2139.7611 
   10100   -102630.19   -92870.618    237.03279    20721    226787.55   -12.073732      95.1559   -143.28186    11.904767    435.44072    23.504028    22.158883    0.3172394    435.75796   -7.8205472   -2105.1537 
   10200   -102494.65   -92823.435    234.88685    20721    226623.64   -79.207268   -143.94523   -101.48572    7.8091459    435.07079     23.50552    22.160289   0.50220459      435.573    12.283097   -2174.9102 
   10300   -102519.83   -92795.378    236.17984    20721    226911.57    68.851568   -3.6894419    100.07772    110.16642    435.21674    23.516503    22.170644    0.4292278    435.64597    9.5474666    -2202.368 
   10400    -102543.9   -92856.341     235.2837    20721    226436.58   -44.700382   -124.74065     70.34828    -79.70878    434.95226    23.499018     22.15416   0.56147224    435.51373    11.284823   -2152.5216 
   10500   -102538.15   -92814.161    236.16862    20721    226793.11    17.253427    44.226268    101.41477   -93.880759    435.33254    23.507236    22.161908   0.37132763    435.70387    4.7233454   -2181.5726 
   10600   -102463.65   -92837.127    233.80148    20721    226703.54   -11.098448   -23.580724   -128.30145    118.58683    435.42901    23.499991    22.155077   0.32309432    435.75211    12.976209   -2168.5881 
   10700   -102465.26   -92836.928    233.84537    20721    226650.95    92.941437    92.763124    44.663762    141.39742    435.24398    23.502259    22.157215   0.41560859    435.65959    14.450092   -2178.5329 
   10800   -102419.41   -92746.591    234.92592    20721    226831.28    26.900105   -27.811425    32.464078    76.047661    435.34932    23.508762    22.163346    0.3629406    435.71226    17.698686   -2265.1646 
   10900   -102394.13   -92754.596    234.11751    20721    226761.74    125.04504    144.66664    319.96112   -89.492659    435.34686    23.505224    22.160011   0.36417205    435.71103    10.793793   -2257.3291 
   11000   -102472.08   -92729.294    236.62514    20721    226703.46   -41.452845   -137.40476    80.580952   -67.534731    435.48177    23.498563    22.153731   0.29671518    435.77848    2.6004348   -2269.5922 
   11100   -102523.63   -92689.692    238.83902    20721    226833.87     -1.87268    36.318979   -15.103871   -26.833148     435.4025     23.50746    22.162118   0.33634879    435.73885   -17.620534   -2289.5647 
   11200   -102562.66   -92724.366    238.94484    20721    226688.93   -24.427714   -114.15177   -44.678262     85.54689    435.30846    23.502487     22.15743   0.38336753    435.69183    8.1273241   -2285.1752 
   11300   -102426.84   -92676.911    236.79861    20721    226748.67   -39.675729   -43.504719   -135.62702    60.104547    435.27087    23.506598    22.161306   0.40216437    435.67304   -5.8687993   -2314.4962 
   11400   -102319.17   -92682.429     234.0496    20721    226610.23    15.815921   -47.752878   -83.113143    178.31378    435.33842    23.497598    22.152821   0.36839193    435.70681   -2.8606638   -2317.9298 
   11500   -102363.77   -92627.132     236.4757    20721    226719.95   -56.538587   -115.21418   -111.11476    56.713182    435.38494     23.50203       22.157   0.34513063    435.73007   -20.211486   -2352.8728 
   11600    -102337.2    -92606.21     236.3387    20721    226835.56    -78.45944    4.8181126   -16.926194   -223.27024    435.19664    23.513107    22.167442   0.43927858    435.63592   -32.456673    -2358.348 
   11700    -102294.7    -92594.39    235.59348    20721    226770.32    33.802058    74.409118    24.433875    2.5631808      435.193    23.509824    22.164347   0.44110057     435.6341  -0.74824583   -2410.4872 
   11800    -102340.9   -92519.131    238.54341    20721    226732.92   -5.8189132   -108.08476   -2.4414196    93.069442    435.30625    23.504827    22.159636   0.38447432    435.69073   -23.197303   -2463.2925 
   11900   -102281.78   -92558.198    236.15881    20721    226972.23    34.045865     62.67542    262.10845   -222.64627    435.59691     23.50938    22.163929   0.23914669    435.83605   -11.011486   -2431.3553 
   12000   -102288.57   -92583.729    235.70352    20721    226605.65   -111.83934    -235.8962   -3.4062306   -96.215578    435.27443    23.499088    22.154226   0.40038507    435.67481    4.5569433   -2426.8501 
   12100   -102305.87    -92569.06    236.47997    20721    226748.76   -36.305087     7.200972    -76.80049   -39.315743    435.43291    23.502229    22.157187   0.32114275    435.75406    5.6309693   -2443.9535 
   12200   -102382.54   -92580.679    238.05986    20721    226862.39    5.6377737   -24.921729    55.807608   -13.972558    435.20793    23.514192    22.168466   0.43363348    435.64157    1.8002296   -2427.8672 
   12300   -102271.99   -92606.852    234.73934    20721    226694.14     11.60901    46.722541   -128.77714    116.88163    435.10383    23.508283    22.162894   0.48568688    435.58951     20.21227   -2426.2142 
   12400   -102229.63   -92573.295    234.52554    20721    226802.28    120.75952   -15.694781    312.79316    65.180175    435.22073    23.510731    22.165203   0.42723478    435.64797    19.722113   -2461.7715 
   12500    -102251.2   -92558.158      235.417    20721     226775.9   -56.725935   -185.93555   -2.2169952    17.974734    435.07098    23.513409    22.167727   0.50211098    435.57309    43.795764   -2492.9849 
   12600   -102319.59   -92532.171    237.70919    20721    226802.98   -47.413573   -71.157523    10.089479   -81.172676    435.33934    23.507565    22.162217   0.36792976    435.70727    22.081745   -2500.3611 
   12700   -102176.26    -92526.38    234.36867    20721    226791.34    30.786055    249.67189   -6.2908043   -151.02292    435.17985    23.511268    22.165709   0.44767403    435.62753    26.553138   -2515.5801 
   12800   -102243.06   -92470.818     237.3405    20721    226794.28    17.087755   -34.431251   -125.14001    210.83453    435.19623    23.510978    22.165435    0.4394825    435.63572   -10.252841   -2536.0025 
   12900   -102268.61   -92442.666    238.64476    20721    226885.12   -36.419682   -19.488454   -45.813077   -43.957515    435.34516    23.511664    22.166082    0.3650212    435.71018  -0.28975122   -2571.0483 
   13000   -102197.54   -92423.061     237.3948    20721    226651.62   -5.1038482    92.988249   -113.58766    5.2878618    435.02609    23.508178    22.162796   0.52455389    435.55065   -9.4134663    -2589.345 
   13100   -102213.44   -92420.258    237.84901    20721    226660.91    48.956267   -2.0284462    261.22734   -112.33009    435.26039    23.502332    22.157284   0.40740643    435.66779     18.41165   -2623.9318 
   13200   -102212.73   -92420.237    237.83243    20721    226778.64    2.7566106    26.078351   -84.231145    66.422626    435.23092    23.509231    22.163788   0.42214152    435.65306    9.9772228   -2611.2252 
   13300   -102126.66   -92447.756    235.07352    20721    226763.66    86.498882     83.52045   -28.103642    204.07984    435.53416    23.500269    22.155339   0.27052001    435.80468    19.763193    -2597.539 
   13400   -102185.05   -92450.146    236.43367    20721    226872.15    6.7179874    174.05007    -169.9529     16.05679    435.25484    23.513431    22.167748   0.41017898    435.66502    22.413531   -2593.7509 
   13500   -102167.68   -92432.436    236.44193    20721     226771.2   -29.650801    60.770964    73.250359   -222.97373    435.28878    23.507282    22.161951   0.39320853    435.68199    35.574778   -2625.5413 
   13600   -102215.11   -92429.825    237.65727    20721    226506.37   -27.447292   -151.09733   -184.44872    253.20418    435.02378    23.500707    22.155752   0.52570828    435.54949     10.31617   -2611.2867 
   13700   -102174.54   -92387.289    237.70502    20721    226674.43    19.802132   -120.66216    115.18489    64.883669    434.95591    23.511258    22.165699   0.55964429    435.51556    11.508901   -2656.6623 
   13800   -102134.81   -92408.362    236.22834    20721    226558.16    88.955185    97.001856    -27.16579    197.02949    435.04101    23.502928    22.157846    0.5170955     435.5581    31.128206    -2661.571 
   13900   -102064.49   -92350.129    235.93476    20721    226699.41    88.700179   -9.7885294    153.78311    122.10596     435.1099    23.508392    22.162997   0.48264883    435.59255   -11.265496   -2674.8108 
   14000   -102265.87   -92343.216    240.99352    20721    226775.97   -58.232475    99.604795   -47.006936   -227.29528    435.12141    23.512051    22.166447   0.47689421    435.59831   0.93861055   -2685.4777 
   14100   -102097.02   -92319.884    237.45927    20721    226650.27    47.284763    102.96887    146.72682    -107.8414    434.89688      23.5116    22.166022   0.58915929    435.48604   -25.271395   -2691.1877 
   14200   -102259.22   -92384.133     239.8384    20721    226778.95   -81.897858   -72.746342     69.37478   -242.32201    435.04156    23.514362    22.168626   0.51681765    435.55838    15.766955   -2660.4394 
   14300   -102110.84   -92352.147    237.01146    20721     226759.2    19.310778     -101.764   -111.83486     271.5312    435.07768    23.512362    22.166741   0.49875839    435.57644    13.284016   -2695.3167 
   14400   -102162.43   -92362.939    238.00234    20721    226609.76   0.33345846    8.9302641   -65.370584    57.440695    434.87423    23.510111    22.164618   0.60048516    435.47471    9.6533755    -2684.792 
   14500   -102248.73   -92364.614    240.05765    20721    226749.47   -51.524467    16.902866   -143.46542   -28.010848    435.20396    23.508447    22.163049    0.4356184    435.63958    11.670691   -2680.6941 
   14600   -102158.35   -92328.073    238.75008    20721    226607.43    2.6354323   -2.3675855    34.446222    -24.17234    435.17313    23.501915    22.156891   0.45103506    435.62416    -2.070843   -2709.8863 
   14700   -102103.38   -92295.381    238.20908    20721    226463.55   -23.367853   -34.392119    -158.8455    123.13406    435.15919    23.494829    22.150211   0.45800601    435.61719   -30.230711   -2718.2824 
   14800   -102145.03   -92272.537    239.77539    20721    226709.09      31.2048     88.31308    176.06961   -170.76829    435.19796    23.506515    22.161228   0.43862171    435.63658   -18.391352   -2750.4806 
   14900   -102183.18   -92303.779    239.94307    20721     226700.7    38.728816   -112.89819    170.24351    58.841129       435.22    23.505485    22.160257   0.42759865     435.6476   -3.7386417   -2737.6655 
   15000   -102072.36   -92268.329    238.11248    20721    226755.36    43.301199   -34.434367     14.23164    150.10632    434.98091    23.514779    22.169019   0.54714745    435.52805   -15.070301   -2758.3245 
   15100   -102052.51    -92225.95    238.65968    20721    226742.83      10.9493   -64.002535    125.93468    -29.08424    434.81732    23.518552    22.172576   0.62894123    435.44626   -31.321815   -2785.6738 
   15200   -102061.88   -92208.678    239.30685    20721    226880.19    6.3001249    136.81168   -179.38808    61.476774    434.99854    23.520774    22.174671   0.53833244    435.53687   -13.775163   -2816.0793 
   15300   -102082.23   -92247.352    238.86173    20721    226690.01    5.8854866    153.54839   -149.25691    13.364981    435.02751    23.510131    22.164636   0.52384303    435.55136    12.623593   -2809.7327 
   15400   -102103.36   -92227.131    239.86602    20721    226656.74  -0.43718515   -148.78039    340.13467   -192.66583    434.76574    23.515482    22.169681   0.65472863    435.42047    13.109367   -2833.9165 
   15500   -102081.77    -92232.28    239.21656    20721    226654.08    -79.01716    133.21642   -24.883832   -345.38407    434.80563    23.514265    22.168534   0.63478518    435.44041    27.413658   -2839.9952 
   15600   -102138.73   -92228.352    240.69547    20721    226597.87   -53.782268   -336.44446    264.03599   -88.938336    434.84914    23.510173    22.164676   0.61303122    435.46217    20.424691   -2841.6235 
   15700   -102095.98   -92229.389    239.63195    20721    226477.88   -19.481973   -234.34852    143.38967    32.512939    434.76443    23.506237    22.160965   0.65538382    435.41982    25.201203   -2851.5665 
   15800    -102112.1   -92192.147    240.92794    20721    226439.58   -9.3380449   -49.241108    126.30633   -105.07936    434.44824    23.512801    22.167154   0.81347772    435.26172    7.1955308   -2873.3873 
   15900   -102036.22   -92162.886    239.79578    20721     226537.1    11.663843   -123.66489    15.413145    143.24327     434.5805    23.514284    22.168552    0.7473505    435.32785    8.1827992    -2902.332 
   16000   -101997.16   -92149.574    239.17054    20721    226459.07    41.486335   -38.758474   -3.7319414    166.94942    434.63504    23.508759    22.163343   0.72007779    435.35512     22.23101   -2933.5806 
   16100   -102028.27   -92150.358    239.90705    20721    226464.73   -9.2663792    81.043163    39.834116   -148.67642    434.52972    23.511902    22.166306    0.7727398    435.30246    32.589566   -2943.7531 
   16200   -102120.66   -92151.143    242.13183    20721    226591.52    21.250962    89.712477    190.58289   -216.54249    434.99737    23.505837    22.160589   0.53891464    435.53629     25.84908   -2937.2092 
   16300   -101996.95   -92158.118    238.95784    20721    226381.63    -2.025315   -45.142481   -212.43917     251.5057    434.82035     23.49973    22.154831   0.62742483    435.44778     24.96561   -2932.2631 
   16400   -101974.15   -92122.572    239.26735    20721    226511.49    60.661691    31.883225   -184.77982    334.88167    434.91376    23.503945    22.158805   0.58071928    435.49448    30.225161    -2972.061 
   16500   -101977.26   -92120.065    239.40371    20721    226297.85     56.11734    1.4332115   -83.024815    249.94362    434.54731    23.502762    22.157689   0.76394687    435.31125    27.383193   -2978.5063 
   16600   -101986.64   -92106.292    239.96613    20721    226323.43   -33.082392   -269.33417    20.144384    149.94261    434.39842    23.508118    22.162739   0.83839025    435.23681    41.414273   -3005.4993 
   16700   -101943.78   -92120.723    238.57467    20721    226353.88    15.162659   -39.955729    53.506849    31.936859    434.58272    23.504713    22.159529    0.7462416    435.32896    39.623026   -2989.7925 
   16800   -101923.98   -92105.063    238.47411    20721    226299.05    14.729227    -64.79362    22.892436    86.088866    434.64737    23.500118    22.155197     0.713915    435.36129    11.859128   -2980.9053 
   16900   -101963.66   -92107.687    239.37406    20721    226212.08    1.0745437    16.542889    172.84983   -186.16908    434.33881    23.503947    22.158806   0.86819386    435.20701     22.25959   -2991.0067 
   17000   -101925.96   -92119.011    238.18336    20721    226385.15   -1.5616664   -75.032166   -116.75807    187.10523    434.59817    23.505919    22.160666    0.7385126    435.33669    23.128937   -2975.9197 
   17100   -101901.75   -92079.367    238.55823    20721    226136.02    17.567796    20.882927   0.57660129     31.24386    434.31448    23.500653    22.155701   0.88036031    435.19484    32.448859   -3033.8469 
   17200   -101900.62   -92036.632    239.56874    20721    226244.33   -82.755624   -67.800399   -150.42783   -30.038641    434.58128    23.499064    22.154203   0.74696095    435.32824    11.190255   -3047.2013 
   17300   -101812.24   -92003.273    238.23253    20721    226305.48     124.0685    75.001718    86.487709    210.71607    434.51566    23.504014     22.15887   0.77977229    435.29543    4.3012423    -3083.957 
   17400    -101846.8   -92017.356    238.72989    20721    226264.44    18.070856   -27.601608    74.146399     7.667777    434.46801    23.503171    22.158075   0.80359341    435.27161   -1.1197649   -3063.8911 
   17500   -101769.66   -91955.572    238.35675    20721    226245.59    43.626078    190.45491    132.36936   -191.94603    434.50094    23.501302    22.156313   0.78712946    435.28807   -1.2538408   -3126.3699 
   17600    -101852.2   -91931.583    240.94403    20721    226262.11   -31.379434   -124.78281    133.21868   -102.57417    434.22095    23.509736    22.164264   0.92712745    435.14807   -29.855881   -3119.8142 
   17700   -101885.35   -91952.689    241.23673    20721     226293.3    5.8556279    66.800223   -5.9400535   -43.293285     434.3763    23.507151    22.161828   0.84944896    435.22575   -15.602903   -3116.1184 
   17800   -101822.43   -91939.611    240.02613    20721     226159.7   -38.023635   -103.09046    263.69195    -274.6724    434.22186     23.50439    22.159225   0.92667169    435.14853   -10.333995   -3135.5029 
   17900    -101890.6   -91967.683    240.99992    20721    226355.65    35.997752    67.663288    1.9313734    38.398593     434.3344    23.511523    22.165949   0.87039842     435.2048   -12.379257    -3105.288 
   18000   -101794.51   -91942.697    239.27298    20721    226169.67    4.9383582   -78.409292    49.922377    43.301989    434.13758     23.50719    22.161864   0.96880946    435.10639   -27.038483   -3119.9114 
   18100    -101840.9   -91950.939     240.1995    20721    226320.44   -105.63723    -144.6889   -40.390242   -131.83256    434.32706    23.509893    22.164413   0.87407029    435.20113   -8.0550576   -3121.4981 
   18200   -101853.11   -91928.566    241.03963    20721    226196.75   -40.566265   -90.353731    130.71781   -162.06287    434.04169    23.511193    22.165638    1.0167538    435.05845   -4.8770511   -3157.1826 
   18300   -101858.89   -91927.152    241.21416    20721    226239.68     9.746675    129.33162   -227.20133    127.10973    434.02901    23.513768    22.168065    1.0230938    435.05211   -4.4760673    -3158.966 
   18400   -101837.35   -91900.735    241.33282    20721    226297.83   -18.796782    27.207948   -55.519066   -28.079229    434.32882    23.508671    22.163261   0.87319136    435.20201    1.1199063   -3189.6825 
   18500   -101876.33   -91933.164    241.49179    20721    226101.93   -3.0309119   -218.70609    108.35377    101.25959    434.21609    23.501544    22.156541   0.92955484    435.14565    6.7770255    -3170.396 
   18600   -101863.29   -91921.516    241.45803    20721     226218.5    13.963253   -66.124507    52.398742    55.615526    434.21722    23.507571    22.162223   0.92898946    435.14621    19.117055   -3192.6614 
   18700   -101751.43   -91919.775    238.78339    20721    225986.11    39.899083    141.88325    -143.1955     121.0095    433.94375    23.502896    22.157816    1.0657242    435.00948   -5.8716723   -3178.0506 
   18800   -101792.62    -91862.89     241.1654    20721    226286.62     29.26936   -96.573393    231.23922   -46.857748    434.18209    23.512061    22.166456    0.9465539    435.12865   -8.4524042   -3224.5813 
   18900   -101739.64   -91845.747    240.29507    20721    226082.01    29.963976    -136.5754    88.283478    138.18385    433.99457    23.506505    22.161219     1.040314    435.03489   -16.492132   -3242.1257 
   19000   -101804.44   -91804.767    242.86422    20721    226225.52   -100.79987   -74.532963   -121.30159   -106.56505    434.27649    23.506331    22.161054   0.89935587    435.17584   -26.466098   -3262.7237 
   19100   -101785.98   -91826.163    241.89621    20721    226022.65   -5.7007192   -123.04328    95.726961    10.214159    434.04865    23.501955    22.156929    1.0132758    435.06192   -2.8601354   -3276.6792 
   19200   -101756.82   -91747.838    243.09026    20721    226232.71    11.572103   -45.599153   -63.842531    144.15799     434.2387    23.507728    22.162371    0.9182524    435.15695   -37.024001   -3314.7669 
   19300   -101714.15   -91709.485    242.98551    20721    226250.94    88.147309    156.25914   -136.02687    244.20966    434.33376    23.506102    22.160838   0.87071895    435.20448   -36.482849   -3359.0427 
   19400   -101745.05   -91747.919    242.80234    20721    226253.36   -44.366136     111.4268   -62.905772   -181.61944    434.53046    23.500907    22.155941   0.77237049    435.30283   -58.515908   -3294.5358 
   19500   -101649.37   -91687.671    241.94203    20721    226057.02   -17.841252    7.3575367    67.359454   -128.24075    434.12939    23.501556    22.156553   0.97290454     435.1023   -49.726858    -3370.076 
   19600   -101746.64   -91708.941     243.7877    20721    225999.75   -94.845737    57.494622   -238.91774   -103.11409    434.22114    23.496096    22.151405   0.92702862    435.14817   -18.931898   -3378.9093 
   19700   -101730.45   -91745.518    242.50612    20721    225979.68    88.047698    6.9197727    121.54324    135.68008    434.10865    23.498097    22.153291   0.98327286    435.09193   -32.183266   -3340.0217 
   19800   -101705.03   -91711.992    242.70298    20721    226084.89   -6.5679507   -76.260314   -99.711109    156.26757    434.02855    23.505735    22.160492    1.0233239    435.05188   -21.121508   -3378.6785 
   19900   -101642.43   -91745.642    240.36542    20721    226011.69    116.09679   -51.089376    86.515645    312.86409    434.02412     23.50205    22.157018    1.0255411    435.04966   -26.534717   -3347.6918 
   20000   -101776.01   -91714.158    244.37427    20721    225997.62   -36.634084   -75.643937     117.2167   -151.47502    433.85764    23.505826    22.160578    1.1087818    434.96642   -40.976244   -3362.3031 
   20100   -101728.14    -91700.84     243.5351    20721    226121.62     3.606838    25.674236   -45.675383    30.821661    433.88543    23.511521    22.165947     1.094886    434.98031    -38.70737   -3375.4405 
   20200   -101662.19   -91673.846    242.58908    20721     225995.2   -44.188044    11.681368   -64.102141    -80.14336     433.8338    23.506347    22.161069    1.1206999     434.9545   -39.295731     -3403.24 
   20300    -101589.3   -91595.001    242.73379    20721     226134.3    37.017412    100.00306    27.338114   -16.288941    433.89553    23.511907    22.166311    1.0898358    434.98536   -90.449806    -3429.662 
   20400   -101625.82   -91633.822    242.67783    20721    226229.55    104.21399   -99.868222    95.360726    317.14947    434.24379    23.507426    22.162086   0.91570315     435.1595   -48.099828   -3436.3349 
   20500   -101587.58   -91620.011     242.0844    20721    225968.58   -47.192527    144.52768   -26.000722   -260.10454    434.09244    23.497958    22.153161   0.99138003    435.08382   -54.180885   -3445.6329 
   20600   -101603.36   -91592.479    243.13643    20721    226114.64    13.242944   -5.9390052    -84.27698    129.94482    434.06203    23.506375    22.161096    1.0065866    435.06861   -44.266042   -3483.2876 
   20700    -101682.4   -91575.794    245.46141    20721    226029.15   -117.00074   -159.20194    32.425467   -224.22576    433.95861    23.504731    22.159546    1.0582928    435.01691    -67.34896   -3474.4972 
   20800   -101534.89   -91573.379    241.93733    20721    226050.01    43.712221    164.94782    50.716392   -84.527548    433.87537     23.50807    22.162694     1.099913    434.97529    -65.07084   -3484.1229 
   20900   -101665.41    -91567.52     245.2497    20721    225973.49    12.328943    42.873983    126.70879   -132.59595    433.82508    23.505453    22.160227    1.1250581    434.95014   -85.553893   -3474.8004 
   21000   -101539.62   -91583.294    241.81138    20721    226054.91    102.63793     102.8577   -167.51739    372.57348     433.7979    23.510424    22.164913    1.1386523    434.93655    -55.08765   -3491.5714 
   21100   -101716.28   -91600.743    245.67818    20721    226105.01   -90.047925     28.65673   -224.93773   -73.862777    433.98296    23.508015    22.162642    1.0461178    435.02908   -59.902088   -3461.6108 
   21200   -101534.52   -91604.764      241.166    20721    225768.46    23.948158    99.484335    31.152435   -58.792295    433.78723    23.495813    22.151138    1.1439848    434.93122   -34.855966   -3496.2547 
   21300   -101597.47   -91556.417     243.8692    20721    226017.97     13.93336    90.424596    142.59997   -191.22448    433.84042    23.507351    22.162016    1.1173921    434.95781   -43.830874   -3528.9321 
   21400   -101605.88   -91553.971    244.13286    20721    226235.54   -15.396766    76.969743   -133.24474    10.084703    433.90418    23.516935    22.171051     1.085512    434.98969   -50.299271   -3518.2898 
   21500   -101607.44   -91594.298    243.19138    20721    225987.63   -9.8572724   -124.93351   -224.97833    320.34002    434.10498    23.498609    22.153775   0.98510965    435.09009   -21.800162   -3516.9379 
   21600   -101519.41   -91545.903    242.22861    20721    226336.03   -98.108773   -21.442124    137.80834   -410.69253    434.29399    23.511598     22.16602   0.89060696    435.18459   -37.072461   -3534.7242 
   21700   -101577.02    -91535.83    243.87252    20721    226263.85   -45.009215    114.47412    148.80818   -398.30995    434.25404     23.50893    22.163505   0.91057768    435.16462   -25.192601   -3562.6146 
   21800   -101479.76   -91523.319    241.81413    20721    226255.94    79.988151   -140.88998    364.62337    16.231057    434.33794    23.506249    22.160976   0.86863074    435.20657   -50.944289   -3555.6421 
   21900   -101492.43   -91537.659    241.77362    20721    226451.94    167.30302    204.29089   -59.664932    357.28311    434.33463    23.516518    22.170658    0.8702825    435.20492   -39.589028   -3553.2016 
   22000   -101573.94   -91561.145    243.18284    20721     226395.3    11.101436   -24.889969   -13.953175    72.147451    434.44603    23.510561    22.165043   0.81458737    435.26061   -31.329744   -3535.8909 
   22100   -101514.45   -91562.525    241.70453    20721    226324.79    59.385247    51.886233    172.80303   -46.533522    434.57585    23.503389     22.15828   0.74967258    435.32553   -43.042299   -3526.9074 
   22200    -101501.1   -91546.802    241.76215    20721    226388.37    -8.983319   -55.090976    96.999617   -68.858598    434.22914    23.516073    22.170238   0.92303154    435.15217    -31.05216   -3548.8861 
   22300    -101556.6   -91519.412    243.77526    20721    226506.31   -39.161775   -38.615312   -165.26689    86.396871    434.55618    23.513344    22.167666   0.75950934    435.31569   -33.907513   -3569.8451 
   22400   -101546.38   -91571.268    242.26777    20721    226032.27   -11.569836    76.020511   -48.378776   -62.351243    434.15963    23.499451    22.154568   0.95778605    435.11741   -17.619584   -3550.1534 
   22500   -101620.55    -91566.91    244.17497    20721    226384.17    59.454618    59.093345    175.67679   -56.406285    434.14241    23.518203    22.172247   0.96639701     435.1088    3.6163818   -3574.7054 
   22600   -101527.51   -91523.586    242.96751    20721    226156.01   -13.952389    75.739599   -106.70296   -10.893806    434.23101     23.50395     22.15881   0.92209349    435.15311   -13.726005   -3602.2303 
   22700   -101553.75   -91503.339    244.09638    20721    226322.55    15.318178   -110.63072    271.58781   -115.00256    434.13516    23.515198    22.169414   0.97002246    435.10518   -19.001766   -3613.1489 
   22800   -101575.41   -91519.206    244.23705    20721    226281.89   -79.995062   -37.574692   -13.769229   -188.64127     433.9837    23.517189    22.171291    1.0457507    435.02945   -14.349064   -3602.6855 
   22900   -101462.27    -91491.64    242.15883    20721    226388.24    41.154703    187.51958   -218.24847      154.193    434.25235    23.515437     22.16964   0.91142724    435.16377   -36.753338   -3612.1609 
   23000   -101564.44   -91558.584    243.01443    20721    226138.35    59.924081    -2.693975    122.26274     60.20348    434.07423    23.507277    22.161946    1.0004862    435.07471   -6.6401159   -3584.9604 
   23100   -101458.39   -91500.875    241.84034    20721    226362.13   -13.833855   -203.21527    244.87279   -83.159088    434.42347    23.509449    22.163994   0.82586378    435.24934   -36.217335    -3602.553 
   23200   -101528.94   -91502.628    243.51125    20721    226353.95    54.508875    36.239632    145.87083   -18.583839    434.38311    23.510117    22.164623   0.84604393    435.22916   -21.891173   -3619.3174 
   23300   -101432.81    -91516.27    240.84515    20721    226142.95     82.10192    12.035328    18.705657    215.56477    434.12273    23.506203    22.160934   0.97623458    435.09897   -16.152015   -3620.4748 
   23400   -101553.14   -91499.121    244.18413    20721    226367.49    2.7520695   -133.49335    6.5430829    135.20648    434.27044     23.51387    22.168162   0.90238105    435.17282    -19.47777   -3624.2914 
   23500   -101503.38   -91469.513    243.69473    20721    226348.18    15.368529     83.64586   -35.210837   -2.3294365    434.37689    23.509986      22.1645    0.8491563    435.22604   -16.643787   -3660.7541 
   23600   -101542.03   -91446.575    245.19036    20721    226222.94   -88.528888   -56.193169   -174.36559   -35.027901    434.11239     23.51064    22.165116   0.98140437     435.0938   -45.394035   -3654.3332 
   23700   -101554.01   -91463.426    245.07225    20721    226198.14   -46.988292   -4.0561441   -214.22025    77.311517    434.01004    23.512123    22.166514    1.0325784    435.04262   -50.009277   -3635.2641 
   23800   -101510.57   -91484.447    243.50648    20721    226449.77    58.560346   -132.47644    194.23993    113.91754    434.21391    23.519674    22.173633   0.93064643    435.14455    -57.25782   -3606.8471 
   23900   -101499.53   -91445.556    244.18309    20721    226149.31   -14.839708    54.387394   -33.908334   -64.998184    434.08327    23.507602    22.162252    0.9959675    435.07923   -54.639624   -3655.3088 
   24000   -101481.83   -91410.428    244.60621    20721    226242.96   -56.249411   -102.41312   -211.77735    145.44224    433.93068    23.516602    22.170738    1.0722601    435.00294   -52.663821    -3687.548 
   24100   -101460.41   -91409.905    244.09887    20721    226220.78   -87.736602   -93.978208    89.927483   -259.15908    434.01021    23.513295    22.167619    1.0324947    435.04271   -48.524897   -3693.7663 
   24200   -101434.41   -91417.921    243.27254    20721     226055.8    15.554304   -97.698448    244.83778   -100.47642    434.03092    23.504159    22.159006    1.0221419    435.05306   -48.950241   -3697.6759 
   24300   -101514.09   -91405.765    245.50312    20721    226048.56     5.201457    33.387597    174.16129   -191.94451    433.86988    23.508144    22.162763    1.1026582    434.97254   -49.083839   -3710.0682 
   24400   -101478.41   -91374.789    245.38891    20721    225796.76   -49.657167   -159.81071   -128.72629     139.5655    433.72359    23.499009    22.154151    1.1758075    434.89939   -54.248712   -3740.8201 
   24500   -101516.17    -91404.83    245.57617    20721    226012.87    44.339304    123.10003   -57.948967    67.866854     433.9542    23.504004     22.15886    1.0605016     435.0147   -51.705612   -3714.0325 
   24600   -101503.51   -91387.495    245.68975    20721    225880.54   -110.59286   -100.25024    43.475819   -275.00416    433.94609    23.497342    22.152579    1.0645567    435.01064   -63.542872   -3716.6166 
   24700   -101338.05   -91344.897    242.70576    20721    225987.85   -4.9937006    -68.45612    -120.5968    174.07182    433.93271    23.503285    22.158183    1.0712458    435.00395   -71.085735    -3751.364 
   24800   -101423.68   -91374.669    244.06256    20721    225981.92   -37.751188   -23.926069   -266.69957    177.37207    433.98307    23.501613    22.156606    1.0460634    435.02914    -46.16247   -3747.2221 
   24900   -101570.75   -91411.736    246.73412    20721     226042.4   -30.447585    2.2782335    5.8398371   -99.460824    434.27873    23.496755    22.152026   0.89823269    435.17697   -40.912326   -3719.6812 
   25000   -101527.29   -91437.699    245.04796    20721    226142.38  -0.91678783   -33.856282    -85.31181    116.41773     433.9228    23.511588     22.16601    1.0761978      434.999   -22.580066   -3709.5738 
   25100   -101453.71   -91376.353    244.75087    20721    226144.03    100.39343    87.655506    293.41954   -79.894753    433.88917    23.512585     22.16695    1.0930168    434.98218   -29.449016   -3769.2917 
   25200    -101443.9   -91395.773    244.04097    20721    226013.71   -44.354379    92.755354   -13.608374   -212.21012    434.05219    23.501394      22.1564     1.011506    435.06369   -27.894026   -3748.5377 
   25300   -101453.23   -91382.182    244.59762    20721     226157.6    79.345271    3.9722578    127.02969    107.03387    433.87713    23.513617    22.167923    1.0990364    434.97616   -22.112793   -3769.3349 
   25400   -101505.14   -91381.663    245.87095    20721    226072.04   -33.626256   -113.55523   -61.818626    74.495088    433.86784     23.50942    22.163966    1.1036783    434.97152   -31.991487   -3758.3752 
   25500    -101480.1   -91313.727    246.91281    20721    226184.63   -10.070725    114.26872    189.03349   -333.51439    434.36175      23.5019    22.156877   0.85672544    435.21847   -38.203677   -3819.5203 
   25600   -101405.97   -91344.444    244.36638    20721    226206.87   -15.358224    58.835241   -124.73199    19.822078    434.33852    23.503684    22.158559   0.86833811    435.20686   -1.2033001   -3825.7844 
   25700   -101474.59   -91337.798    246.19433    20721    226044.83     73.46626    153.30367      32.0925    35.002607    434.05306    23.502989    22.157903    1.0110676    435.06413   0.46105618   -3846.8793 
   25800   -101484.97   -91356.844    245.98398    20721    226257.22    39.988457    27.597121    92.949499  -0.58124974    434.41303    23.504283    22.159124   0.83108744    435.24411   -8.8382821   -3810.3794 
   25900   -101420.17   -91323.022    245.23161    20721    226011.78   -5.0058041    -57.62371   -150.15278    192.75908    434.25394    23.495834    22.151158   0.91062851    435.16457   -32.340182   -3827.4738 
   26000      -101411   -91374.498    243.75866    20721    226171.04    56.276924   -89.994384    49.711649    209.11351    433.96488    23.511937     22.16634    1.0551611    435.02004   -14.442007   -3793.1845 
   26100    -101387.5   -91324.226     244.4088    20721    226202.85    46.502082    39.617637   -56.853498    156.74211    434.11016    23.509656    22.164189   0.98252054    435.09268   -30.097453   -3827.2841 
   26200   -101420.38   -91317.576    245.36895    20721    226212.43   -50.694325   -88.605984   -138.21543    74.738443    434.09251    23.510632    22.165109   0.99134364    435.08386   -12.339678   -3848.7671 
   26300    -101381.8   -91337.378    243.95093    20721    226291.17    -33.41959   -182.91291    40.630228    42.023909    434.14292    23.513358    22.167679   0.96614083    435.10906   -2.8989299   -3837.8704 
   26400   -101374.95    -91344.61    243.60912    20721    226157.16   -35.844466   -4.7687822    135.28174   -238.04635    433.93311    23.512077    22.166471     1.071047    435.00415    2.3128699   -3839.9948 
   26500   -101351.48    -91296.37    244.21061    20721    226138.56    24.986202   -3.0149732   -45.522387    123.49597     433.8182    23.514224    22.168495    1.1285007     434.9467   -12.962164    -3877.308 
   26600   -101336.05   -91293.656    243.90182    20721    226115.29    58.686865    86.962792    159.38578    -70.28798    433.71786    23.515734    22.169919    1.1786702    434.89653   -4.7249959   -3891.5197 
   26700   -101412.25   -91292.248    245.78664    20721     225958.7    49.663805    22.749378     64.53976    61.702278    433.67017    23.508882    22.163459    1.2025135    434.87269   -41.704136   -3860.9047 
   26800   -101433.27   -91279.323    246.61097    20721    226132.29    21.344366    28.228594   -32.160274    67.964779    433.91906    23.511164    22.165611    1.0780694    434.99713   -40.240084   -3872.0273 
   26900   -101310.98   -91272.739    243.80087    20721    226028.93    21.467411   -94.148329    277.68893   -119.13836    433.91681    23.505852    22.160603    1.0791956      434.996   -35.571522   -3885.0622 
   27000   -101380.17   -91218.775    246.79191    20721    225946.57   -30.285329   -120.43684    43.749094   -14.168239    433.91443    23.501633    22.156625     1.080385    434.99482   -30.445851   -3945.3106 
   27100   -101344.71   -91256.236    245.02088    20721    226091.78    29.851931    35.336606    86.872103   -32.652916    433.46914    23.521256    22.175125    1.3030323    434.77217     -31.6646   -3905.7665 
   27200   -101175.94    -91200.97    242.26431    20721    226063.41    38.659974     253.6918    157.96989   -295.68177    433.80705    23.510618    22.165096    1.1340753    434.94112   -22.368929   -3971.2154 
   27300   -101342.98     -91202.1    246.29361    20721    226070.77   -56.554977   -205.11596   -207.58159    243.03262    434.02899    23.504989    22.159789    1.0231054    435.05209   -20.216894   -3972.8549 
   27400   -101252.74   -91138.377    245.64964    20721    226103.38    46.836192    56.347945   -82.352372      166.513    434.05737    23.505916    22.160663    1.0089152    435.06628   -32.135233   -4027.9219 
   27500   -101239.86   -91097.918    246.31951    20721    226079.59    10.535725    -31.44088    87.687278   -24.639222    433.89435    23.509094    22.163659     1.090427    434.98477   -20.222978   -4080.4815 
   27600   -101255.49   -91112.307    246.34967    20721    226121.24    42.019572    326.27713    64.729239   -264.94765    434.01443    23.508007    22.162634    1.0303846    435.04482   -27.378778   -4059.8419 
   27700   -101188.71   -91096.213    245.11872    20721    226309.61  -0.37368163    -109.6364   -105.62412    214.13947    434.10998    23.515208    22.169423   0.98261132    435.09259   -21.916685   -4074.8796 
   27800   -101230.14    -91061.12    246.97725    20721    226140.87    37.077341     87.24308    49.339577   -25.350634    433.72579    23.516848     22.17097    1.1747039     434.9005   -29.283091    -4111.374 
   27900   -101314.33   -91109.689    247.84238    20721    226199.64   -53.491226   -41.257006   -52.611995   -66.604677    433.79793    23.517948    22.172007    1.1386358    434.93656   -19.531058    -4068.381 
   28000   -101153.26   -91087.652    244.46545    20721    226194.46    109.17241     122.2282   -134.19179    339.48082    433.64097    23.521935    22.175765    1.2171142    434.85809   -40.740656   -4076.0199 
   28100   -101123.34   -91073.439    244.08418    20721     226090.2      12.4198    -69.11078   -114.97113     221.3413    433.81002    23.511931    22.166334    1.1325923    434.94261   -45.900883   -4083.7583 
   28200   -101180.94   -91075.368    245.43613    20721    226368.28   -32.407162   -136.98397    152.11046   -112.34798    433.92378    23.523302    22.177054    1.0757124    434.99949   -49.073947   -4069.7068 
   28300   -101160.34   -91083.613    244.73558    20721    226150.28    4.0160839    120.28138   -139.21031    30.977174    433.90477    23.512487    22.166858    1.0852147    434.98999   -30.741742   -4089.2116 
   28400   -101111.11   -91065.109    243.98943    20721    226107.31    20.096555   -8.5661907    168.97357   -100.11771    433.85987     23.51147    22.165899    1.1076657    434.96753   -34.393077   -4107.3407 
   28500   -101156.99   -91056.347    245.31636    20721    226051.46   -56.415672   -76.665488    35.263553   -127.84508    433.93181    23.506617    22.161324    1.0716949    435.00351   -57.497303   -4090.8531 
   28600   -101199.49   -91083.247    245.69543    20721    226238.66    67.382865    51.615854   -117.43668    267.96943    433.89972    23.517218    22.171318    1.0877396    434.98746   -45.700185   -4078.4473 
   28700   -101125.32   -91033.275    245.10762    20721    226165.26    19.659291    57.024512    16.953514   -15.000155    433.95097    23.512014    22.166412    1.0621171    435.01308   -51.574698    -4123.185 
   28800   -101176.43   -91043.757    246.09428    20721    226325.46    -0.271453   -120.68836    26.184843    93.689163    434.10099    23.516275    22.170429   0.98710403     435.0881   -56.139794   -4105.5738 
   28900   -101153.59   -91035.081    245.75047    20721    226318.91    166.00722    154.55288    357.87696    -14.40817    434.11066    23.515673    22.169862   0.98226895    435.09293   -57.284241    -4121.597 
   29000   -101179.14   -91065.888    245.62262    20721    226131.27   -45.873728    209.09449   -408.28693    61.571249    433.78077    23.514859    22.169094    1.1472166    434.92798   -53.985777   -4089.8276 
   29100   -101221.76   -91062.332    246.74427    20721    226341.82   -26.830537    -61.39688     -18.7627  -0.33203003     434.1007    23.517133    22.171238    0.9872517    435.08795   -35.909327   -4108.8504 
   29200   -101186.05   -91071.768    245.64779    20721    226210.36    9.7347511    74.657423    96.169159   -141.62233    433.73295    23.520267    22.174193    1.1711238    434.90408   -40.878592   -4099.5458 
   29300    -101213.3   -91052.846    246.76904    20721    226094.52    -40.04715   -25.279625    15.182724   -110.04455    433.73994    23.514055    22.168336    1.1676291    434.90757   -38.018155   -4124.1879 
   29400   -101106.76   -91048.063    244.29779    20721    226138.68    53.514816   -147.70511     7.367117    300.88244    433.61945    23.519618    22.173581    1.2278742    434.84733   -55.247002   -4116.9039 
   29500   -101252.61    -91063.99     247.4531    20721    226218.89   -24.384273    45.566082    173.82444   -292.54334    433.67974    23.522154    22.175971    1.1977295    434.87747   -40.033909   -4112.6557 
   29600   -101084.59    -91020.62    244.42579    20721     226265.5   -38.905199    49.526644   -178.50101    12.258772    433.88898    23.518904    22.172908    1.0931095    434.98209   -73.306001    -4118.085 
   29700      -101248   -91023.938    248.31401    20721    225986.08   -28.974807    72.728269    -245.2697    85.617008     433.8285    23.506016    22.160757    1.1233517    434.95185   -54.911214   -4146.5626 
   29800   -101123.23    -91019.54    245.39055    20721    226113.04    56.844042    207.66349    283.60867   -320.74003    433.90608    23.510516    22.164999    1.0845621    434.99064   -57.280316   -4149.5361 
   29900   -101231.24    -91003.46     248.4042    20721    226025.06   -34.706334   -33.815993    83.625918   -153.92893    433.50025    23.516942    22.171058    1.2874751    434.78772   -53.972194   -4167.9364 
   30000   -101185.54   -90974.965    247.98632    20721     226019.1    -49.36844    1.6793664   -250.14873    100.36405    433.65621    23.512402    22.166778    1.2094966     434.8657   -56.305701   -4193.6863 
   30100   -101213.17   -90979.108    248.55682    20721     225993.2   -6.0301409   -97.538372    23.614568    55.833381    433.43438    23.517071    22.171179    1.3204123    434.75479   -37.193634   -4214.5874 
   30200   -101176.12   -90964.817    248.00399    20721    225933.28   -20.263425   -52.647999    234.98405   -243.12632    433.33105    23.516756    22.170883    1.3720749    434.70313   -37.832654   -4229.4177 
   30300   -101011.08   -90930.198    244.83644    20721    225927.93    95.720158     177.0528    88.920899    21.186773    433.47213     23.51265    22.167012    1.3015347    434.77367   -49.501638   -4257.7121 
   30400   -101243.72   -91003.156    248.71474    20721    226099.45    15.102932   -73.003687   -23.536184    141.84867    433.84652    23.511423    22.165855    1.1143389    434.96086   -36.881718   -4193.3371 
   30500   -101172.05   -90968.109    247.82538    20721    225975.94   -6.2508879   -96.114505   -85.528215    162.89006    433.72745    23.508226    22.162841    1.1738733    434.90133   -52.422739   -4216.1331 
   30600   -101183.06   -90976.977     247.8772    20721     226093.4    82.637547    63.485635    95.361963    89.065044    433.76842    23.513225    22.167554    1.1533911    434.92181   -57.221298   -4204.8514 
   30700   -101213.76   -90980.531    248.53665    20721    226012.88   -68.600453    35.440566   -69.315901   -171.92602    433.51251    23.515975    22.170147    1.2813436    434.79386   -73.086116   -4180.8414 
   30800   -101103.27   -90967.566    246.16791    20721    226027.38     91.23764    203.96036    169.60985   -99.857293    433.68231    23.512125    22.166517    1.1964436    434.87876   -48.714399   -4226.8869 
   30900   -101123.15   -90920.358    247.79747    20721    226277.13     49.58616    103.38593    -31.39983    76.772382    433.90081    23.519188    22.173175    1.0871953      434.988    -58.57265   -4253.6274 
   31000   -101156.96   -90959.293    247.67299    20721    226010.55   -29.080766   -161.21645   -156.28202    230.25617     433.5985    23.513522    22.167834    1.2383478    434.83685   -61.727331   -4219.7268 
   31100    -101170.7   -90949.944    248.23358    20721    226053.15    29.408479    5.7044643    412.88855   -330.36758    433.88687    23.507922    22.162554    1.0941625    434.98104   -42.448359   -4251.0579 
   31200   -101120.24   -90936.147    247.34319    20721    226141.71     35.63905   -59.380886    78.623311    87.674725    433.90283    23.512094    22.166487    1.0861827    434.98902   -59.484408    -4244.514 
   31300   -101158.65   -90928.445    248.46308    20721    226199.98      14.4699    158.98891   -51.884476   -63.694737    434.07649    23.510419    22.164908    0.9993555    435.07584   -54.391741   -4258.3015 
   31400   -101083.17   -90914.547    246.96743    20721    226296.61    10.155822    118.78739    45.073685   -133.39361    434.00129    23.517477    22.171562    1.0369533    435.03825   -35.482643   -4287.6041 
   31500   -101096.76   -90896.902    247.72602    20721    226130.92     130.5195    54.936644    227.86488    108.75697    433.90797    23.511394    22.165827    1.0836136    434.99159    -50.95613   -4303.8623 
   31600    -101164.7   -90882.918    249.71576    20721    226180.82   -84.003667   -247.45299    94.787258   -99.345269    434.06396    23.509762    22.164289    1.0056189    435.06958   -40.100604    -4316.351 
   31700   -101122.34   -90869.421    249.01474    20721    226069.16    25.020253   -133.15392     221.2144   -12.999724     433.7481    23.512515    22.166884    1.1635508    434.91165    -28.82529    -4349.978 
   31800   -100973.97   -90842.327     246.0693    20721    226101.61   -62.346514    94.909432   -13.504786   -268.44419    433.81088    23.512501    22.166871    1.1321585    434.94304   -57.636752   -4343.4793 
   31900   -101098.73   -90853.697    248.82323    20721    226111.37    35.815339   -184.58058   -21.887787    313.91438    433.90845    23.510364    22.164857    1.0833751    434.99182   -48.355241   -4348.5706 
   32000   -101194.61   -90863.038     250.9251    20721    226231.41   -43.976642    -117.9263  -0.21393294   -13.789699    433.87239    23.517581    22.171661    1.1014054    434.97379   -71.267801   -4309.6871 
   32100   -101027.15   -90844.658    247.30427    20721    225954.57     39.96024   -132.24746    445.90138    -193.7732    433.58127    23.511077    22.165529    1.2469634    434.82824    -48.03718   -4367.9443 
   32200    -101061.4   -90833.275    248.41262    20721    226182.72    9.8586104    161.09424   -222.23548    90.717067    433.75856    23.518136    22.172184    1.1583207    434.91688   -36.328772   -4383.1113 
   32300   -100989.07   -90842.396    246.43444    20721    225836.25    61.020796    117.09739      119.765   -53.800006    433.49795    23.507179    22.161854    1.2886234    434.78658   -38.517158   -4385.0236 
   32400   -101036.05   -90823.912    248.02442    20721    225953.84   -9.8642256   -119.91546   -32.483918     122.8067    433.31281    23.518321    22.172358    1.3811972      434.694   -38.211123   -4398.5146 
   32500   -101015.98   -90821.605    247.59302    20721    226011.99     44.24527   -62.664029  -0.82670887    196.22655    433.44767    23.517688    22.171761    1.3137668    434.76143    -59.80205   -4381.8513 
   32600   -101134.43   -90827.661    250.32277    20721     225972.4    47.992692   -41.969683    309.57551   -123.62775    433.54636    23.512951    22.167295    1.2644202    434.81078   -67.674347   -4370.9364 
   32700   -101055.03   -90770.548    249.78131    20721    225900.15   -34.091585   -114.15345    57.703695   -45.824996    433.51212     23.51012    22.164627     1.281539    434.79366   -71.760822   -4424.8054 
   32800   -101028.75   -90786.889    248.74633    20721    225769.77    23.862764    159.37382   -161.38285    73.597322    433.15823    23.512934    22.167279    1.4584865    434.61671   -71.207008   -4415.4898 
   32900   -100967.05   -90743.423    248.30332    20721    225889.73    39.458676   -61.482795    102.38237    77.476453    433.60025    23.507189    22.161863    1.2374729    434.83773   -55.900879   -4472.0169 
   33000   -101026.33   -90738.737      249.857    20721    225926.47   -62.253627   -167.94323   -379.73305     360.9154    433.63174    23.508247     22.16286    1.2217278    434.85347   -75.369977   -4454.0438 
   33100   -100966.06   -90797.642    246.96257    20721    225905.83    10.471759   -163.31237   -19.279939    214.00758     433.5923    23.508242    22.162856    1.2414482    434.83375    -62.55035   -4410.9371 
   33200   -100983.16   -90769.305    248.06602    20721    225930.46   -65.070009    57.989094   -72.259954   -180.93917    433.68273    23.507073    22.161753    1.1962372    434.87896   -54.779214   -4445.6158 
   33300   -101037.05   -90776.397    249.20257    20721    225862.81   -65.640325   -100.36085    7.7746013   -104.33472    433.88034      23.4982    22.153388    1.0974284    434.97777   -60.972234   -4435.5099 
   33400   -101099.18   -90798.287    250.18005    20721     225980.4    28.784669    34.264293    177.50698   -125.41727    433.64766    23.510621    22.165099    1.2137685    434.86143   -54.429176   -4422.9082 
   33500   -100937.92   -90729.581    247.93204    20721    225884.67   -52.993537    7.9556494     40.63667   -207.57293    433.66349    23.505211    22.159999    1.2058552    434.86934   -63.924965   -4480.8979 
[...]
  491800   -95917.246   -84386.987    280.03785    20721    220571.11   -71.512247    9.9382633   -71.287787   -153.18722    422.64028    23.528058    22.181538    6.7174586    429.35774    5716.3999   -23766.127 
  491900   -95861.201   -84347.397     279.6382    20721    220991.31    133.22057    177.12544    -38.76451     261.3008    422.90187    23.543174    22.195789    6.5866674    429.48853    5702.8811   -23791.609 
  492000   -95839.288   -84362.024    278.75076    20721    220920.58    37.704722    115.17194   -79.362741    77.304969    423.25603    23.529555     22.18295    6.4095859    429.66561    5706.0426   -23778.409 
  492100   -95942.291   -84376.038    280.91205    20721    220859.68    -16.52349   -100.31865   -95.744199    146.49238    423.15286     23.52918    22.182596    6.4611702    429.61403    5726.9738   -23787.217 
  492200   -95895.459   -84342.949    280.57828    20721    221286.78    55.704719   -142.80935    20.771951    289.15156    423.11605    23.552944    22.204999    6.4795774    429.59562    5733.8549   -23816.224 
  492300   -95962.566   -84407.073    280.65071    20721    220936.67   -144.61182   -105.54794   -153.93906   -174.34846    422.94668    23.539016    22.191869    6.5642575    429.51094    5739.7919   -23764.484 
  492400    -95944.05   -84397.139    280.44228    20721    221013.37   -10.374315    176.27969    193.70743   -401.11006    423.00233    23.541553    22.194261    6.5364369    429.53876    5752.7054   -23793.201 
  492500   -95960.715   -84399.757    280.78345    20721    221247.16   -8.6668891     77.78891   -51.178354   -52.611224    423.41924    23.542402    22.195061    6.3279779    429.74722    5741.8988   -23774.241 
  492600    -96009.54   -84410.209    281.71542    20721    221006.89   -71.509393   -79.122531   -6.9258253   -128.47982    422.89545    23.544183     22.19674    6.5898738    429.48533    5736.3669   -23762.941 
  492700   -96041.342   -84431.533    281.96991    20721    221224.97   -77.465856    42.442819   -200.79653   -74.043859    422.87402    23.556393    22.208251    6.6005885    429.47461    5753.7465   -23753.187 
  492800   -96023.246   -84392.193    282.48587    20721    221190.85    81.065027    175.27794    73.433156   -5.5160119    423.15216    23.546834    22.199239    6.4615212    429.61368    5733.0079   -23782.405 
  492900   -95938.834   -84354.898    281.34154    20721    221221.65     26.13118   -60.076214    101.49356    36.976195    422.71408    23.560672    22.212285    6.6805597    429.39464    5725.5722   -23810.164 
  493000   -96025.788    -84358.09    283.37586    20721    220888.95    -35.79459   -86.264319    39.621986   -60.741436    422.53309     23.54799    22.200329    6.7710543    429.30415    5747.5413   -23838.277 
  493100    -95995.36   -84339.179    283.09617    20721    221075.01   -1.4712598   -94.221522    90.313677  -0.50593469    422.82247    23.549843    22.202076     6.626364    429.44884    5747.3502   -23855.948 
  493200   -95850.365   -84280.176    281.00764    20721    221125.01   -8.0449873    227.63311   -27.778859   -223.98922     422.8241     23.55246    22.204544    6.6255476    429.44965    5743.0406   -23910.081 
  493300   -95912.423   -84338.612    281.09561    20721    221201.95   -72.417307   -144.88412   -68.461116   -3.9066851    422.90164    23.554398     22.20637    6.5867816    429.48842    5733.9274   -23837.656 
  493400   -95805.977   -84279.074    279.95634    20721    221339.74    50.498085     137.5664    84.903772   -70.975916    422.58853     23.57046    22.221513     6.743333    429.33187    5699.6217    -23866.48 
  493500   -95826.749   -84273.139    280.60501    20721    221235.45   -3.4651619    117.49502   -114.82984   -13.060668    422.73302    23.560879    22.212481    6.6710911    429.40411    5711.0266   -23885.966 
  493600   -95835.551   -84267.014    280.96751    20721    221199.63   -43.983903   -29.798546   -2.4149196   -99.738242    423.34553    23.541923    22.194609    6.3648368    429.71036    5705.8387   -23888.728 
  493700   -95820.251   -84293.539    279.95172    20721    221217.24    15.892815   -78.685633    144.10478   -17.740699    423.52387    23.537902    22.190819     6.275664    429.79954    5704.6741   -23863.242 
  493800   -95873.057   -84283.685    281.47354    20721    220951.49    159.26125     110.5607    279.91178    87.311264     423.0549    23.536795    22.189774    6.5101489    429.56505    5702.3826   -23889.473 
  493900    -95897.39   -84294.423    281.80374    20721     221450.7   -92.063225   -8.7665715   -148.08991    -119.3332    423.24256    23.558144    22.209902    6.4163204    429.65888    5727.2143   -23879.957 
  494000   -95923.287   -84278.689    282.81484    20721    221315.88    39.163691     11.50857    99.375753    6.6067495    423.44979    23.545209    22.197707    6.3127043     429.7625    5717.3161   -23899.373 
  494100   -95946.847   -84274.297    283.49373    20721    221320.12   -1.4062377   -238.57279   -118.14289    352.49697    423.58334    23.541722     22.19442    6.2459307    429.82927    5715.1613   -23898.866 
  494200    -95774.12   -84303.983    278.57766    20721    221139.22   -38.597918    55.400562    183.88029   -355.07461    423.45995    23.535527     22.18858    6.3076268    429.76757    5712.4331   -23871.121 
  494300   -95965.327    -84303.84    283.22501    20721    221087.45   -77.524004    33.464635    -86.63761   -179.39904    423.65962    23.527226    22.180753     6.207789    429.86741    5691.6671   -23854.054 
  494400   -95749.184   -84250.288    279.27614    20721    221023.59    135.99865    184.41401    231.68187   -8.0999448    423.58321     23.52595     22.17955    6.2459952     429.8292    5679.3156   -23906.152 
  494500   -95814.329   -84225.757    281.45411    20721    221269.16    8.0879351    51.468332   -12.006782   -15.197745    423.80493    23.532857    22.186062    6.1351365    429.94006    5679.4734   -23920.472 
  494600   -95742.296   -84199.141    280.35105    20721    221421.95    15.664572   -92.617152    202.61225   -63.001378    423.69972    23.543903    22.196476    6.1877415    429.88746    5670.3937   -23935.215 
  494700   -95814.559   -84255.483    280.73774    20721     221500.4    97.254458    138.85329    48.162844    104.74724    424.10562    23.536802    22.189782    5.9847915    430.09041    5683.2228   -23892.138 
  494800   -95891.304   -84282.964    281.93423    20721    221365.63   -20.340138   -140.34319    329.40856   -250.08578    423.96951    23.533417     22.18659    6.0528433    430.02236    5689.8216   -23871.636 
  494900   -95932.039   -84229.116    284.23139    20721       221775   -36.340992   -84.541888    379.88788   -404.36896    423.96634    23.555256    22.207179    6.0544325    430.02077    5694.2364   -23919.169 
  495000   -95814.001   -84234.948    281.22294    20721    221801.29    52.925071    165.88519   -72.185447    65.075469    424.00104    23.555688    22.207586     6.037079    430.03812    5684.1151   -23907.377 
  495100   -95730.627    -84263.02    278.51621    20721    221448.05    119.19556    118.18396    87.630993    151.77172    423.84548    23.541242    22.193967    6.1148605    429.96034    5694.5629   -23905.464 
  495200   -95817.833   -84257.478     280.7688    20721    221295.59     149.8981    467.20653    174.42252   -191.93475    423.58843    23.540276    22.193056    6.2433861    429.83181    5674.8521   -23899.745 
  495300   -95876.679   -84317.274    280.74574    20721    221511.79   -49.674895   -184.22228    172.78837   -137.59077    423.80293    23.545811    22.198275    6.1361356    429.93906    5721.3334   -23874.813 
  495400   -95811.955   -84290.448    279.82527    20721    221535.74    46.706278   -126.54321    -70.19599    336.85803    424.03194    23.540725     22.19348    6.0216301    430.05357    5700.8039    -23885.72 
  495500   -95945.813    -84302.42    282.78557    20721    221435.13   -66.695478   -54.528302   -118.32434   -27.233788    424.13314    23.532571    22.185792    5.9710316    430.10417    5696.1817   -23869.814 
  495600   -95845.185   -84286.837    280.72006    20721     221075.5    35.167179    77.913049   -288.78286    316.37135    423.96283    23.518176    22.172221    6.0561859    430.01901    5704.0939   -23911.096 
  495700   -95928.753   -84275.356    283.02854    20721    221072.44   -38.909746    37.549188    16.598495   -170.87692    423.64596    23.526807    22.180358    6.2146218    429.86058    5687.4546   -23906.523 
  495800   -95827.594   -84254.721    281.07285    20721    221048.98    51.295051    211.91625    134.95833   -192.98943     423.7344    23.523103    22.176867    6.1703983     429.9048    5688.0141   -23932.892 
  495900   -95845.982   -84227.612    282.17784    20721    221240.38    8.4802761   -106.30689    204.89739   -73.149668    423.70916    23.533986    22.187127    6.1830209    429.89218    5676.7954   -23943.274 
  496000   -95836.628    -84179.36    283.12255    20721    221446.47    16.804195    86.478665   -136.20685    100.14077    423.83352     23.54149    22.194201    6.1208376    429.95436     5661.319   -23968.801 
  496100   -95830.041   -84209.942    282.21983    20721    221381.56   -23.753388   -55.624489   -141.20883    125.57315     423.7175    23.541262    22.193986    6.1788498    429.89635    5681.0513   -23959.645 
  496200   -95867.092    -84178.89    283.87386    20721     221364.3   0.83813271    -217.8195    141.12688    79.207015    423.71097    23.540525    22.193292    6.1821125    429.89309    5674.3598   -23987.202 
  496300   -95842.291    -84196.26    282.84962    20721    221144.49    14.513094   -35.852761   -69.043161     148.4352    423.73809    23.528082     22.18156     6.168554    429.90665    5677.1919   -23980.439 
  496400   -95868.288    -84233.59    282.57438    20721    221180.13   -25.470392   -81.826939    244.81199   -239.39623    423.69055    23.531298    22.184592    6.1923238    429.88288      5685.38   -23951.466 
  496500   -95899.704   -84212.059    283.86032    20721    221333.84   -146.19039   -164.59638   -4.2317936   -269.74299    423.77794    23.537045    22.190011    6.1486279    429.92657    5709.4381   -23985.683 
  496600   -95834.224   -84218.309    282.11821    20721    221215.83    10.239399    -207.1897    118.48668    119.42121    423.41462    23.540863     22.19361     6.330292    429.74491    5700.5519   -23986.005 
  496700   -95895.445   -84219.738    283.57041    20721    221170.84    2.0990405   -6.1483791    311.92428   -299.47878     423.3168    23.541189    22.193917    6.3791987      429.696    5683.8222   -23970.588 
  496800   -95764.732    -84219.64    280.39811    20721    221201.13   -90.628058   -407.95002     285.3181   -149.25225    423.52218    23.537092    22.190055     6.276508    429.79869    5677.4904   -23958.918 
  496900   -95783.652   -84162.939    282.23474    20721    221273.76    72.841912    75.566607    19.228086    123.73104    423.41881    23.543829    22.196406    6.3281968      429.747    5656.9661   -24002.241 
  497000   -95735.753   -84135.273    281.74334    20721    221109.36    34.768007    14.267177    106.66894   -16.632095    423.06562    23.544903    22.197419    6.5047877    429.57041    5656.9122   -24037.839 
  497100   -95824.272   -84168.542    283.08519    20721    221032.72   -14.683661    82.913628   -88.019455   -38.945157    423.60288    23.525889    22.179493    6.2361624    429.83904    5652.0586   -24000.267 
  497200   -95865.058   -84216.503    282.91094    20721    220959.86    11.701843    56.161873    103.51726    -124.5736    423.86869    23.514635    22.168883    6.1032527    429.97195     5678.305   -23984.984 
  497300   -95838.952   -84177.374    283.22723    20721    221127.84   -35.577885     118.6896   -211.00856   -14.414689    423.97399     23.52065    22.174554    6.0506057    430.02459    5671.5606   -24012.672 
  497400   -95880.238   -84168.451    284.44666    20721     221001.9   -13.980867   -80.821554   -12.778425    51.657377    423.67755    23.522176    22.175992    6.1988258    429.87637    5660.0909   -24016.517 
  497500   -95789.195   -84126.637    283.25103    20721    220753.02    46.905535    97.786634     68.23726   -25.307289    423.33616    23.518405    22.172437    6.3695205    429.70568      5662.44   -24075.265 
  497600    -95788.56   -84108.717    283.67086    20721    221340.51    -31.72767   -102.64511   -186.08672    193.54882    423.34197    23.549517    22.201769    6.3666149    429.70859    5671.7577   -24078.823 
  497700   -95713.832   -84102.441    282.00835    20721     221304.7    41.779749    125.36219    154.11788   -154.14082    423.10488    23.554209    22.206192    6.4851591    429.59004    5678.2386   -24097.435 
  497800   -95828.278   -84103.215     284.7691    20721    221197.07   -78.252826     41.64536   -210.15824   -66.245597    422.97675    23.552046    22.204153    6.5492249    429.52598    5667.1273   -24085.429 
  497900   -95835.252    -84144.97    283.92438    20721    221086.47   -3.5815448     -35.0346   -50.202712    74.492678    423.20869    23.539705    22.192518    6.4332569    429.64194     5682.741   -24067.897 
  498000   -95819.664   -84150.374    283.41454    20721    221165.14    -107.3696   -51.460113   -459.71461    189.06592    423.16741    23.545041    22.197549    6.4538967     429.6213    5680.7434   -24055.355 
  498100   -95779.356   -84131.915    282.88387    20721    220915.95   -90.094451   -141.27812    70.235354   -199.24059    423.40788    23.525089    22.178739    6.3336599    429.74154    5669.9333   -24073.208 
  498200   -95870.019   -84155.692    284.50837    20721     220963.1   -46.766642   -153.46343    107.37498   -94.211478    423.24665     23.53208     22.18533    6.4142764    429.66092    5677.1282   -24059.889 
  498300   -95799.453   -84140.784    283.15659    20721    221085.25    54.407286    178.98853   -206.79667       191.03    423.42536    23.533616    22.186778     6.324919    429.75028    5677.2825   -24074.816 
  498400    -95822.75    -84140.42    283.73123    20721    221036.51   -106.56293    -181.2269   -123.08564   -15.376248    423.45802    23.530114    22.183477    6.3085884    429.76661     5698.982    -24094.59 
  498500   -95683.925   -84129.703    280.61986    20721    221139.91    70.002133    -172.7392    118.69136    264.05425    423.20463    23.542663    22.195307    6.4352874    429.63991    5699.1924    -24111.81 
  498600   -95734.694   -84139.568     281.6133    20721    221023.98    11.012864    216.92759   -224.44744    40.558441    423.03789    23.541128     22.19386     6.518654    429.55655    5677.7666   -24081.772 
  498700   -95797.612   -84153.015     282.8148    20721    220988.31    80.974919    76.795933    81.670488    84.458337    423.46502    23.527354    22.180874    6.3050908    429.77011    5692.3829   -24090.719 
  498800   -95779.747   -84153.394    282.37172    20721    221224.74    19.722437   -69.748164     152.1563   -23.240828    423.50015     23.53896    22.191816    6.2875232    429.78768    5702.6454   -24090.241 
  498900   -95720.149   -84177.551    280.33754    20721    221197.66    35.939962    144.12184   -220.40562    184.10367    423.89325    23.526603    22.180166    6.0909754    429.98422    5705.5727   -24070.335 
  499000   -95794.558   -84183.063    282.01084    20721    221292.12    35.383305   -76.159343  -0.42018377    182.72944     423.9693    23.529515    22.182912    6.0529476    430.02225    5709.1987   -24067.038 
  499100   -95899.245   -84182.989    284.55519    20721    220946.24    -19.67513    22.024007    143.20996   -224.25935    423.70197    23.518536    22.172561    6.1866136    429.88859     5715.362   -24085.784 
  499200   -95737.142   -84197.176    280.27363    20721    221201.92     126.0887    109.53632    -135.1628    403.89258    423.69579    23.532312    22.185548    6.1897063    429.88549    5714.8558   -24068.963 
  499300   -95891.795   -84186.155    284.29738    20721    221435.83   -56.812441    24.085211   -118.20677   -76.315763     423.7859    23.542247    22.194915    6.1446505    429.93055    5730.2512   -24080.916 
  499400    -95819.44   -84215.408     281.8296    20721    221517.82    119.33257    -192.0414    553.54367   -3.5045776     423.8476    23.544891    22.197407    6.1137984     429.9614    5743.7183   -24075.005 
  499500   -95908.835   -84219.717    283.89609    20721    221494.26   -50.625577   -67.534075   -257.76827    173.42561    423.34401    23.557638    22.209425    6.3655927    429.70961    5750.3957   -24072.562 
  499600   -95805.709   -84223.668     281.2955    20721    221299.91     21.08528   -32.602258   -167.53531    263.39341    423.24985    23.549919    22.202148    6.4126732    429.66253     5757.077   -24087.578 
  499700   -95867.273   -84220.811    282.86009    20721    221284.11    -50.27027    51.844263    161.35778   -364.01285    423.33413    23.546735    22.199146    6.3705346    429.70467    5751.2407   -24081.904 
  499800   -95906.896   -84178.058    284.86079    20721    221486.24   -105.18151   -33.183665   -113.22226    -169.1386    423.92587    23.541039    22.193776    6.0746666    430.00053    5748.5761   -24115.284 
  499900    -95782.14   -84197.001    281.37075    20721    221524.18    39.237788   -75.981035    45.669268    148.02513    423.39506    23.557809    22.209586    6.3400721    429.73513    5767.5592   -24120.141 
  500000   -95842.234   -84226.338    282.11775    20721    221529.71   -105.12755     63.27396   -379.07938   0.42278708    423.34962    23.559367    22.211055    6.3627924    429.71241    5789.7987   -24109.454 
Loop time of 71235.8 on 32 procs for 500000 steps with 20721 atoms

Performance: 1.213 ns/day, 19.788 hours/ns, 7.019 timesteps/s
97.4% CPU use with 32 MPI tasks x no OpenMP threads

MPI task timing breakdown:
Section |  min time  |  avg time  |  max time  |%varavg| %total
---------------------------------------------------------------
Pair    | 13663      | 14582      | 16543      | 852.1 | 20.47
Bond    | 0.78218    | 0.87332    | 1.0946     |   7.8 |  0.00
Kspace  | 13207      | 15173      | 16094      | 836.9 | 21.30
Neigh   | 10681      | 12826      | 14756      |1535.0 | 18.00
Comm    | 527.78     | 1812.4     | 4371       |2781.6 |  2.54
Output  | 7.4944     | 31.44      | 43.719     | 207.3 |  0.04
Modify  | 25246      | 26726      | 29696      | 882.1 | 37.52
Other   |            | 84.85      |            |       |  0.12

Nlocal:    647.531 ave 705 max 610 min
Histogram: 4 2 10 5 0 2 3 2 2 2
Nghost:    7171 ave 7965 max 6638 min
Histogram: 3 10 5 2 0 2 0 7 0 3
Neighs:    237759 ave 277709 max 216614 min
Histogram: 4 12 5 0 1 2 2 2 2 2
FullNghs:  475519 ave 555085 max 432566 min
Histogram: 4 13 4 0 0 3 2 2 3 1

Total # of neighbors = 15216603
Ave neighs/atom = 734.357
Ave special neighs/atom = 2
Neighbor list builds = 500000
Dangerous builds not checked
write_data production.R1
PPPM initialization ...
  extracting TIP4P info from pair style
WARNING: Using 12-bit tables for long-range coulomb (../kspace.cpp:316)
  G vector (1/distance) = 0.345868
  grid = 400 48 48
  stencil order = 5
  estimated absolute RMS force accuracy = 0.000402569
  estimated relative force accuracy = 1.21232e-06
  using double precision FFTs
  3d grid and FFT values/proc = 67260 38400
write_restart restartproduction.R1
PPPM initialization ...
  extracting TIP4P info from pair style
WARNING: Using 12-bit tables for long-range coulomb (../kspace.cpp:316)
  G vector (1/distance) = 0.345868
  grid = 400 48 48
  stencil order = 5
  estimated absolute RMS force accuracy = 0.000402569
  estimated relative force accuracy = 1.21232e-06
  using double precision FFTs
  3d grid and FFT values/proc = 67260 38400
Total wall time: 19:47:16
