LAMMPS (30 Jul 2016)
# Sets up LAMMPS simulation for transient melting of ice: TIP4P/Ice
# Ensure cold thermostats do not move
# Thinbox: 16x1x1
# Defects
# Order param l=2

#### setting MD parameters ####
units real
boundary p p p
atom_style full

# read ice box in restart file
#read_data ice-ih-restart.data
read_restart restart.state
  orthogonal box = (0.421142 0.0227254 0.0214248) to (435.654 23.5085 22.1631)
  32 by 1 by 1 MPI processor grid
  20736 atoms
  13824 bonds
  6912 angles
  2 = max # of 1-2 neighbors
  1 = max # of 1-3 neighbors
  1 = max # of 1-4 neighbors
  2 = max # of special neighbors

#replicate 16 boxes, 16x1x1


#### force field definition ####
pair_style      lj/cut/tip4p/long 2 1 1 1 0.1577 10.0
pair_modify	tail yes

kspace_style	pppm/tip4p 1.0e-6

bond_style	harmonic
angle_style	harmonic
dihedral_style	none
improper_style	none

bond_coeff	1 450.0 0.9572
angle_coeff	1 55.0 104.52


# reset pair coeff
pair_coeff	* * 0.0 0.0

#OO
pair_coeff	2 2 0.21085 3.1668
#OH
pair_coeff	* 1 0.0000 0.0000

neighbor        2.0 bin
neigh_modify    every 1 delay 1 check no

timestep	2.0
fix		constraints all shake 0.000001 20 0 b 1 a 1
  0 = # of size 2 clusters
  0 = # of size 3 clusters
  0 = # of size 4 clusters
  6912 = # of frozen angles

group water type 1 2
20736 atoms in group water

#*********** SIMULATION PARAMETER TO ADJUST ****************
#Box dimensions
variable lx equal lx
variable ly equal ly
variable lz equal lz

### Temperature of the hot and cold regions ####
variable thi equal 375
variable tlo equal 215
variable runpressure equal 0.986923
# Configuration equilibrated in density and temperature

# Define dx here

variable lx equal lx
variable ly equal ly
variable lz equal lz

variable xlo equal xlo
variable xhi equal xhi


variable dx equal 2.0

### ADD IN DEFECTS AT THE CENTRE OF THE HOT THERMOSTAT ###
variable x1 equal ${lx}/4.0
variable x1 equal 435.232916512146/4.0
variable y1 equal ${ly}/2.0
variable y1 equal 23.4857492584552/2.0
variable z1 equal ${lz}/2.0
variable z1 equal 22.1416504225963/2.0

region kill1 sphere ${x1} ${y1} ${z1} 3
region kill1 sphere 108.808229128037 ${y1} ${z1} 3
region kill1 sphere 108.808229128037 11.7428746292276 ${z1} 3
region kill1 sphere 108.808229128037 11.7428746292276 11.0708252112981 3
delete_atoms region kill1 compress no bond yes mol yes
Deleted 12 atoms, new total = 20724
Deleted 8 bonds, new total = 13816
Deleted 4 angles, new total = 6908




variable thip equal ${thi}*2.0/3.0
variable thip equal 375*2.0/3.0
variable tlop equal ${tlo}*2.0/3.0
variable tlop equal 215*2.0/3.0
variable cbl equal ${lx}*3.0/4.0-${dx}
variable cbl equal 435.232916512146*3.0/4.0-${dx}
variable cbl equal 435.232916512146*3.0/4.0-2
variable cbh equal ${lx}*3.0/4.0+${dx}
variable cbh equal 435.232916512146*3.0/4.0+${dx}
variable cbh equal 435.232916512146*3.0/4.0+2
variable hbl equal ${lx}*1.0/4.0-${dx}
variable hbl equal 435.232916512146*1.0/4.0-${dx}
variable hbl equal 435.232916512146*1.0/4.0-2
variable hbh equal ${lx}*1.0/4.0+${dx}
variable hbh equal 435.232916512146*1.0/4.0+${dx}
variable hbh equal 435.232916512146*1.0/4.0+2


#***************************************************
## EQUILIBRATION PERIOD - to reach the steady state ###
#run 0

#reset the timestep to start your production run
reset_timestep 0

# define a group to perform averages
#group s1 type 1
###*** SYSTEM THERMOSTATTING: HOT and COLD regions ***###

fix NVE all nve
fix PRESS all press/berendsen aniso ${runpressure} ${runpressure} 500000 couple yz
fix PRESS all press/berendsen aniso 0.986923 ${runpressure} 500000 couple yz
fix PRESS all press/berendsen aniso 0.986923 0.986923 500000 couple yz


### Apply THERMOSTATS ###

#set up the "hot region" in the middle of the box
region hot block ${hbl} ${hbh} 0 ${ly} 0 ${lz} units box
region hot block 106.808229128037 ${hbh} 0 ${ly} 0 ${lz} units box
region hot block 106.808229128037 110.808229128037 0 ${ly} 0 ${lz} units box
region hot block 106.808229128037 110.808229128037 0 23.4857492584552 0 ${lz} units box
region hot block 106.808229128037 110.808229128037 0 23.4857492584552 0 22.1416504225963 units box


#set up the "cold region" at the left end of the box
region cold block ${cbl} ${cbh} 0 ${ly} 0 ${lz} units box
region cold block 324.42468738411 ${cbh} 0 ${ly} 0 ${lz} units box
region cold block 324.42468738411 328.42468738411 0 ${ly} 0 ${lz} units box
region cold block 324.42468738411 328.42468738411 0 23.4857492584552 0 ${lz} units box
region cold block 324.42468738411 328.42468738411 0 23.4857492584552 0 22.1416504225963 units box

#set up the "cold region" at the right end of the box
#region cold2 block ${h2bl} ${xhi} 0 ${ly} 0 ${lz} units box


#Cold regions  unification
#region cold union 2 cold1 cold2 units box

#Create group of cold molecules
####group cool_ice region cold
####group cool_ice include molecule

####compute cold_temp cool_ice temp
####fix cold_rescale water temp/rescale 1 ${tlo} ${tlo} 0.0001 1.0
####fix_modify cold_rescale temp cold_temp

#this calculates the temperature using only the atoms in the "hot region"
#compute hot_temp all temp/region hot

# calculate the temperature using only WATER in the "hot region"
compute hot_temp water temp/region hot

#this calculates the temperature using only WATER in the "cold region"
compute cold_temp water temp/region cold


#set up a basic velocity rescale for the hot region WATER with thip
fix hot_rescale water temp/rescale 1 ${thip} ${thip} 1.0 1.0
fix hot_rescale water temp/rescale 1 250 ${thip} 1.0 1.0
fix hot_rescale water temp/rescale 1 250 250 1.0 1.0
#change the thermostat to only act on the "hot region"
#this is done by passing it the "hot temp" compute that we defined above
fix_modify hot_rescale temp hot_temp

#set up a basic velocity rescale for the cold region
fix cold_rescale water temp/rescale 1 ${tlop} ${tlop} 1.0 1.0
fix cold_rescale water temp/rescale 1 143.333333333333 ${tlop} 1.0 1.0
fix cold_rescale water temp/rescale 1 143.333333333333 143.333333333333 1.0 1.0
#change the thermostat to only act on the "cold region"
#this is done by passing it the "cold temp" compute that we defined above
fix_modify cold_rescale temp cold_temp

### Ensure MOMENTUM CONSERVATION ###

#ensure that linear momentum is conserved despite the "thermostatting" by velocity rescaling
fix cons_mom all momentum 1 linear 1 1 1


thermo 100
thermo_style custom step pe etotal temp atoms vol press pxx pyy pzz lx ly lz xlo xhi f_cold_rescale f_hot_rescale

group ox type 2
6908 atoms in group ox
group hy type 1
13816 atoms in group hy
compute KE all ke/atom
variable TEMP atom c_KE*4186.8/(1.3806488*6.02214129)

compute cc1 all chunk/atom bin/1d x center 2 units box
#fix TPROFILE all ave/chunk 1 500 500 cc1 v_TEMP density/number file temp.dat
fix TPROFILEox ox ave/chunk 1 500 500 cc1 v_TEMP density/number file temp-ox.dat
fix TPROFILEhy hy ave/chunk 1 500 500 cc1 v_TEMP density/number file temp-hy.dat

compute orderparam ox orientorder/atom degrees 1 2 nnn 4 cutoff 3.5
compute cc2 ox chunk/atom bin/1d x center 2 units box
#fix ORDERPARAM all ave/chunk 1 500 500 cc2 c_orderparam[1] file order-param.dat
fix ORDERPARAM all ave/chunk 1 500 500 cc2 c_orderparam[1] file order-param.dat

restart 50000 config.restart

run 500000
PPPM initialization ...
  extracting TIP4P info from pair style
WARNING: Using 12-bit tables for long-range coulomb (../kspace.cpp:316)
  G vector (1/distance) = 0.345597
  grid = 405 48 48
  stencil order = 5
  estimated absolute RMS force accuracy = 0.000406026
  estimated relative force accuracy = 1.22274e-06
  using double precision FFTs
  3d grid and FFT values/proc = 67260 38880
Neighbor list info ...
  2 neighbor list requests
  update every 1 steps, delay 1 steps, check no
  max neighbors/atom: 2000, page size: 100000
  master list distance cutoff = 12.3154
  ghost atom cutoff = 12.3154
  binsize = 6.1577 -> bins = 71 4 4
Memory usage per processor = 12.775 Mbytes
Step PotEng TotEng Temp Atoms Volume Press Pxx Pyy Pzz Lx Ly Lz Xlo Xhi cold_res hot_resc 
       0   -103765.88    -94896.96    215.37009    20724    226326.88    160.59302   -157.90693    162.59839    477.08759    435.23292    23.485749     22.14165   0.42114174    435.65406            0            0 
     100   -103546.78   -94629.035    216.55592    20724    226452.17     -30.0267    171.84224   -15.522116   -246.40023     435.3972    23.487816    22.143599    0.3390024     435.7362    16.468895   -279.18818 
     200   -103649.59   -94591.225    219.97053    20724    226363.18   -125.94333   -139.10305   -316.03726      77.3103    435.38025    23.483658    22.139679   0.34747696    435.72772    29.984869   -329.31161 
     300   -103623.37   -94561.155    220.06403    20724    226343.79    1.3057383      42.0704    43.522366    -81.67555    435.10496    23.490079    22.145733   0.48511971    435.59008    20.068516   -358.66638 
     400   -103610.88    -94531.22    220.48764    20724    226483.14  -0.37089581    45.088879   -138.13043    91.928861    435.46109    23.487699    22.143489   0.30705399    435.76815    43.513597   -408.16619 
     500    -103518.2   -94440.496    220.44032    20724    226420.46    -10.30255    28.581055   -221.18774    161.69903    435.22497    23.490818    22.146429   0.42511335    435.65009    26.219266   -483.22859 
     600   -103513.91   -94432.854    220.52154    20724    226335.42    17.316183      214.346   -107.16013    -55.23732    435.10089    23.489755    22.145427   0.48715496    435.58805    10.658544      -478.25 
     700   -103526.31   -94405.007    221.49902    20724    226467.61     12.09815   -207.52405     44.79134    199.02716    435.17997    23.494479     22.14988   0.44761428    435.62759    15.121126   -508.61753 
     800   -103418.07   -94357.838    220.01585    20724    226272.07    51.418275    2.5762088    136.79416    14.884457    434.90736    23.491692    22.147253   0.58391853    435.49128    14.186904   -560.81896 
     900   -103405.13   -94266.967    221.90831    20724    226376.07    72.761837    9.4961602    10.828327    197.96102    435.22224    23.488589    22.144328   0.42647833    435.64872   -10.562525   -626.73748 
    1000   -103369.73    -94246.13    221.55478    20724    226299.46   -24.916254   -47.951074   -42.543948    15.746261    435.17841    23.485797    22.141695   0.44839343    435.62681   -18.127084   -636.85086 
    1100   -103388.69   -94203.013    223.06215    20724    226451.08    91.395687    5.2659772    259.85445    9.0666353    435.21401    23.492702    22.148206   0.43059517     435.6446   -24.276156   -677.26104 
    1200   -103348.23   -94192.175    222.34274    20724    226432.09    9.1834336    23.815397    49.686824    -45.95192    435.35354    23.487953    22.143728   0.36083176    435.71437   -19.677174   -687.74729 
    1300   -103256.08   -94108.872     222.1279    20724    226484.29    38.385517   -25.855219     218.7131   -77.701327    435.22604      23.4941    22.149524   0.42458109    435.65062   -39.329402   -754.54121 
    1400   -103333.04   -94165.156     222.6302    20724     226644.3   -24.257907   -123.73117    54.205345   -3.2478994    435.48059    23.495528     22.15087   0.29730362     435.7779   -7.3524732   -722.94864 
    1500   -103258.83   -94097.266    222.47668    20724    226451.75    -1.065762    63.603365    -110.3367    43.536045    435.34533    23.489194    22.144898   0.36493523    435.71026    3.7239556   -808.61533 
    1600   -103273.58   -94022.343    224.65425    20724    226508.39    23.966352    75.528415    19.199553   -22.828913    435.22285    23.495436    22.150783   0.42617607    435.64902   -30.755309   -849.58042 
    1700   -103268.11   -94046.978    223.92329    20724    226531.51    19.644395    19.012927     283.4074   -243.48714    435.12127    23.499378    22.154499   0.47696265    435.59824   -10.780611   -845.56126 
    1800   -103256.87   -93984.748    225.16144    20724    226663.44   -10.897324    10.965826    24.330174   -67.987973    435.50538    23.495852    22.151175   0.28490874    435.79029   -18.252071   -896.37194 
    1900   -103253.43    -94016.81     224.2992    20724    226505.62   -20.299847    156.79909   -117.25389   -100.44475    435.31421    23.492827    22.148323   0.38049584     435.6947    6.1212391   -893.89686 
    2000   -103304.53   -94016.114    225.55705    20724       226534   -36.304089    1.9107682   -207.65849     96.83545    435.25002    23.496031    22.151344   0.41258958    435.66261     3.083805   -891.18461 
    2100   -103238.79   -93948.266    225.60821    20724    226547.34   -84.253923   -92.024827   -164.44416    3.7072153    435.26817    23.496233    22.151535   0.40351441    435.67169   -13.879656   -940.39539 
    2200   -103208.36   -93984.951    223.97836    20724    226601.76    44.957579    94.489292    36.822262    3.5611829    435.21988    23.500359    22.155424   0.42765788    435.64754    3.4316025   -925.94186 
    2300   -103206.15   -93953.513    224.68822    20724     226590.2     -96.5369   -34.284654    -124.0795   -131.24654    435.14028    23.501908    22.156885   0.46745935    435.60774    6.5805511   -955.63947 
    2400   -103200.05   -93934.024    225.01326    20724    226581.27    3.3099628   -47.783227    166.26303   -108.54991    435.37546    23.495097    22.150463   0.34987129    435.72533    7.7690553   -983.47072 
    2500   -103273.16   -93910.489    227.36015    20724    226776.28    9.0321836    123.60712     18.33068   -114.84125     435.2632    23.508237    22.162851   0.40599795     435.6692    16.717566   -1012.3886 
    2600   -103143.36   -93842.753    225.85309    20724     226714.2    21.072051   -68.663315     63.08905    68.790417    435.34311    23.502861    22.157783   0.36604522    435.70915    9.4414923   -1073.8852 
    2700   -103188.43   -93837.828    227.06713    20724    226669.28    7.1579601    6.9828427   -168.38312    182.87415    435.11775    23.506618    22.161325   0.47872708    435.59647    11.758966   -1082.8616 
    2800   -103147.66    -93841.33    225.99213    20724    226641.72    3.7251923   -131.21866  -0.96535655    143.35959    435.34237    23.499124     22.15426   0.36641598    435.70878    5.7492683    -1074.761 
    2900   -103123.82   -93784.499    226.79333    20724    226766.61   -46.174407   -280.07874    142.65175   -1.0962379    435.34924    23.505413    22.160188   0.36298225    435.71222   0.44513178   -1122.0172 
    3000   -103110.18    -93830.77    225.33845    20724    226685.92    35.425347    110.84603    128.30246   -132.87245    435.27989    23.503102     22.15801   0.39765459    435.67755    28.834307   -1110.1988 
    3100   -103140.78   -93772.345    227.50019    20724    226729.39    24.786574   -67.253638    192.06979    -50.45643    435.33414    23.503891    22.158754   0.37052784    435.70467     12.61993    -1153.306 
    3200   -103074.62   -93740.031    226.67826    20724     226584.3    54.480801    180.18356    1.2205295   -17.961686    435.29503    23.497425    22.152658   0.39008647    435.68511    3.1165396   -1180.7751 
    3300   -103116.32   -93752.792    227.38099    20724     226799.6   -73.429237    37.002405     130.2293   -387.51942    435.67449    23.498346    22.153526   0.20035307    435.87485    17.462214   -1172.6961 
    3400   -103127.02   -93725.572      228.302    20724    226618.11   -1.7037068   -146.06342   -233.58461    374.53691    435.50082    23.493625    22.149075   0.28719028    435.78801    2.8499768    -1193.805 
    3500   -103013.43   -93687.129    226.47713    20724    226750.42    74.997423    134.82843   -238.71443    328.87827     435.3475     23.50462    22.159441   0.36384781    435.71135    17.626636   -1247.5971 
    3600   -103033.49   -93660.498     227.6108    20724    226758.54    6.6016542   -63.563077    33.394866    49.973174    435.60355    23.498132    22.153324   0.23582695    435.83937    -24.35917   -1230.1803 
    3700   -103030.13   -93669.057    227.32138    20724    226684.67    45.545326    127.86557    106.35484   -97.584438    435.44361    23.498619    22.153783   0.31579738     435.7594    10.246206   -1261.6098 
    3800   -102984.53   -93655.492     226.5436    20724    226654.15    17.557897    42.697698      101.403   -91.427006    435.45662    23.496685    22.151961    0.3092912    435.76591    9.8890267   -1273.0042 
    3900   -103200.68   -93651.317    231.89374    20724    226531.17   -87.935459   -85.745492   -121.33075   -56.730137     435.1654    23.498169    22.153359   0.45490142     435.6203     6.358378   -1276.9798 
    4000   -103096.63   -93647.644    229.45634    20724    226586.94    25.172399   -12.677103    41.945887    46.248413    435.39306    23.494916    22.150293   0.34107235    435.73413    25.573931   -1303.7549 
    4100   -103120.86   -93664.621    229.63235    20724    226491.24    -87.27877   -85.180911    11.752474   -188.40787     435.3419    23.491334    22.146916   0.36665183    435.70855    26.810774   -1286.9495 
    4200   -102986.42   -93642.315    226.90943    20724    226648.63   -51.242987   -258.24292    -85.75909    190.27305    435.39496    23.498063    22.153259   0.34012124    435.73508    31.552353   -1310.7972 
    4300    -103005.1   -93686.449    226.29119    20724    226381.88    16.999814    147.26649   -125.82438    29.557331    435.23404    23.488572    22.144312   0.42057839    435.65462     48.69412   -1295.1801 
    4400   -102899.65   -93609.787    225.59233    20724    226587.18    60.301931   -108.13762    109.71538    179.32804    435.30089    23.497416    22.152649   0.38715328    435.68805    49.753185   -1371.5579 
    4500   -103051.07   -93655.384    228.16192    20724    226534.64   -52.286224   -187.41386    30.824048  -0.26885771    435.42788    23.491265    22.146851   0.32366031    435.75154    65.290716   -1337.8634 
    4600   -103003.22   -93603.755    228.25365    20724    226621.71   -14.718537    62.596283    -204.5801    97.828204    435.28257    23.499701    22.154803   0.39631424    435.67889    52.737205   -1376.0127 
    4700   -103014.15   -93606.563    228.45099    20724    226380.62    77.641275    79.741212    255.73304   -102.55043    435.18343    23.489873    22.145538   0.44588609    435.62931    64.666211    -1399.574 
    4800   -103022.95   -93598.596    228.85822    20724    226483.11   -56.024835   -10.439819   -46.162554   -111.47213    435.40518    23.489206    22.144909   0.33500805    435.74019    63.070702   -1395.5187 
    4900   -102931.07   -93603.765    226.50134    20724    226571.52    137.24253    16.262349    168.78612    226.67911    435.15437    23.500559    22.155613   0.46041581    435.61478     42.84189   -1378.0092 
    5000   -102951.62   -93561.727    228.02143    20724    226509.15    33.529888    176.68113   -83.389324    7.2978614    435.21077    23.495802    22.151128    0.4322152    435.64298    48.641911   -1425.0577 
    5100   -102929.33   -93544.123     227.9076    20724    226499.15   -64.407211   -99.200699   -170.18012    76.159189     435.3163    23.492435    22.147954   0.37945091    435.69575    49.715725   -1438.8225 
    5200   -102944.95   -93500.242    229.35231    20724     226728.6    51.651281     139.9472    127.41818   -112.41153    435.31617    23.504335    22.159172   0.37951317    435.69569     60.17397   -1493.5184 
    5300   -102934.85   -93503.562    229.02647    20724     226702.2    84.274685    116.96418    25.988214    109.87166    435.62351    23.494674    22.150065   0.22584549    435.84935    47.016893   -1480.2385 
    5400   -102866.01   -93473.579    228.08307    20724    226850.84   -10.832039   -253.30823    111.67438    109.13774    435.62818    23.502249    22.157206   0.22351218    435.85169    41.495895   -1499.5491 
    5500   -102914.95   -93480.616    229.10056    20724    226736.64    16.910206    74.999553    43.324322   -67.593257    435.60404    23.496984    22.152242   0.23558005    435.83962    51.546343   -1509.7606 
    5600    -102869.9    -93443.54    228.90697    20724    226764.14    23.419908    133.38399    -277.9811    214.85684    435.57588    23.499168    22.154301   0.24965994    435.82554    61.480764   -1555.4924 
    5700   -103045.47   -93454.419    232.90629    20724    226859.26   -81.306279   -140.84973   -187.27916    84.210056    435.78561     23.49844    22.153615   0.14479621     435.9304    44.893052   -1524.1763 
    5800   -102918.21    -93408.47    230.93167    20724    226659.07    74.845694   -19.463512   -22.436929    266.43752     435.5477    23.494484    22.149885   0.26375165    435.81145     49.75971   -1587.7424 
    5900   -102879.53   -93410.243    229.94939    20724    226701.32   -11.251031     111.6761    87.386724   -232.81592    435.39938    23.500675    22.155722   0.33790932    435.73729    38.892104   -1569.7323 
    6000   -102914.31   -93393.294    231.20554    20724    226709.47   -7.4502447   -34.509098   -61.393632    73.551995    435.52397    23.497736    22.152951   0.27561506    435.79958    26.802778   -1576.6079 
    6100   -102914.39   -93409.137    230.82256    20724    226812.77   -38.130043   -111.79593    182.12363   -184.71783    435.57123    23.501813    22.156795   0.25198345    435.82322     35.42667   -1564.0842 
    6200   -102821.41   -93353.954    229.90477    20724     226578.1    4.8983427    5.5261804    178.37623   -169.20738    435.49122     23.49181    22.147364   0.29199084    435.78321    14.717554   -1608.5132 
    6300   -102923.55   -93360.078    232.23655    20724    226818.78   -7.3118313    73.801298    -248.8286    153.09181    435.34849    23.508136    22.162756   0.36335374    435.71185    38.786096   -1622.9097 
    6400   -102852.58   -93371.064    230.24621    20724    226831.45    12.773402   -59.101305     154.8483   -57.426785    435.59647      23.5021    22.157066   0.23936356    435.83584    48.385982   -1623.0513 
    6500   -102935.97   -93411.362    231.29279    20724    226668.15    7.2330036   -34.502307   -31.842711    88.044028    435.56514    23.494484    22.149885   0.25502819    435.82017    58.889567   -1598.1013 
    6600    -102897.6   -93365.337    231.47867    20724    226875.36    7.4565055    29.626617   -104.06989    96.812787    435.64431    23.503084    22.157993   0.21544425    435.85976    51.692482   -1633.2123 
    6700    -102748.9   -93350.042      228.239    20724    226871.08    81.344511    114.55385    319.89006   -190.41038    435.57112    23.504837    22.159646   0.25203988    435.82316    62.232845   -1659.1743 
    6800    -102821.1   -93346.547    230.07727    20724    226884.28    25.187096    182.80826    254.40319   -361.65016    435.73344    23.501142    22.156162   0.17087877    435.90432    76.265606   -1678.2512 
    6900   -102821.17   -93302.928     231.1381    20724    227040.99   -17.311466     143.8703     133.3784   -329.18309    435.88532    23.505161    22.159951  0.094941855    435.98026    72.233613   -1710.3552 
    7000   -102730.36   -93276.401    229.57715    20724    226919.71    128.51788    67.954127    68.992014     248.6075    435.70834    23.503654    22.158531   0.18342974    435.89177     77.38954   -1755.1868 
    7100    -102768.6   -93234.215    231.53005    20724    226861.11   -41.967639   -20.513101    193.46872   -298.85854    435.55923    23.504641    22.159461   0.25798656    435.81721    38.510846   -1751.6037 
    7200   -102751.71    -93204.51     231.8414    20724    226928.35    55.699377     1.247392   -51.696204    217.54694    435.56574    23.507948    22.162579   0.25472801    435.82047    45.194048   -1792.0784 
    7300   -102705.61   -93249.068    229.63984    20724    226682.63    41.150348   -53.149101   -55.743284    232.34343    435.34266    23.501237    22.156252   0.36627171    435.70893    49.966398    -1758.618 
    7400   -102805.08   -93225.933    232.61711    20724    226990.45    69.645317    95.189499    54.330497    59.415956      435.546    23.511698    22.166114   0.26460242     435.8106    49.859711   -1775.8397 
    7500   -102835.81   -93271.092    232.26668    20724    226852.14   -75.091028   -57.008652   -176.66439     8.399963    435.56072    23.504136    22.158985   0.25723834    435.81796    81.172137   -1760.0506 
    7600    -102798.5   -93242.264    232.06073    20724    226928.38   -28.445111    5.2104085     137.4057   -227.95145    435.62491    23.506353    22.161075   0.22514331    435.85006    71.574668   -1781.4688 
    7700   -102703.92   -93259.113     229.3549    20724    226757.89   -7.3601985   -48.563714    71.055373   -44.572254    435.50881    23.500654    22.155702   0.28319721      435.792    76.854669   -1774.0765 
    7800   -102878.44   -93300.822    232.58003    20724    227008.76     44.96973    184.88149    167.43188   -217.40418    435.73953    23.507424    22.162085   0.16783286    435.90737    74.548838   -1728.3991 
    7900   -102931.59   -93297.109    233.96074    20724    226789.21   -21.227599   -34.371067   -9.1215373   -20.190194     435.5204    23.501964    22.156937   0.27740182     435.7978    86.769311   -1749.5153 
    8000   -102770.13   -93273.433     230.6148    20724    226868.21    110.26431    187.84776   -42.984122    185.92929     435.5714    23.504681    22.159499   0.25190047     435.8233    78.067324   -1767.0999 
    8100   -102882.86   -93301.383    232.67371    20724    226699.87   -70.314485    77.031945   -289.68415    1.7087491    435.45418    23.499121    22.154257   0.31051249    435.76469    105.44861   -1763.3586 
    8200   -102839.18   -93242.469    233.04373    20724     226952.1    62.132618    -11.20957    30.326902    167.28052    435.66278     23.50656    22.161271   0.20620923    435.86899    69.978989    -1789.785 
    8300    -102816.3   -93214.892    233.15763    20724    226920.12    16.449785    121.41586    52.948692    -125.0152    435.79162     23.50143    22.156433   0.14179167    435.93341    57.854223   -1805.4954 
    8400   -102779.69   -93193.564    232.78646    20724    227012.38    1.0178765    1.9362032   -109.89177     111.0092    435.68312    23.509133    22.163696   0.19604106    435.87916    62.633277      -1827.8 
    8500   -102863.08   -93256.754    233.27708    20724    226813.03   -31.281324   -193.30427    119.46432   -20.004029    435.60039     23.50104    22.156066   0.23740684    435.83779    92.615619   -1799.1495 
    8600   -102768.25   -93271.589    230.61396    20724    226884.72     16.72327    58.161727   -116.65985    108.66794    435.54308      23.5063    22.161025   0.26606079    435.80914    99.139195   -1792.3803 
    8700   -102877.51   -93254.529    233.68146    20724    227041.04     28.75266    50.459106   -89.309585    125.10846    435.67226     23.51091    22.165372   0.20146791    435.87373    90.627923   -1797.7525 
    8800   -102734.09   -93235.037     230.6722    20724    227031.76    64.334214    220.30305     105.7229   -133.02331    435.73776    23.508663    22.163252   0.16872098    435.90648    110.22533   -1839.8912 
    8900   -102832.28   -93210.242    233.65859    20724    226974.54  -0.83562209   -28.809324   -11.929046    38.231504    435.96644    23.499535    22.154647  0.054382342    436.02082    75.466945   -1830.4435 
    9000   -102816.86    -93236.98    232.63498    20724    227055.39    102.15694   -105.71349   -71.824218    484.00853    435.77035    23.509007    22.163577   0.15242715    435.92277    98.569627   -1830.4466 
    9100   -102771.47   -93212.266    232.13287    20724    227033.13   -80.124046   -58.950215    33.593156   -215.01508    435.70579    23.509596    22.164132   0.18470369     435.8905    78.489319   -1827.6907 
    9200   -102749.37   -93168.481     232.6595    20724    226920.46    50.083989    89.464256    235.62964   -174.84193    435.52981     23.50851    22.163108   0.27269422    435.80251    79.300401   -1882.3112 
    9300   -102872.19   -93132.421    236.51769    20724    227041.59   -42.954098     234.9602   -187.46769   -176.35481    435.79085     23.50774    22.162382    0.1421773    435.93302    65.905241   -1900.7984 
    9400   -102814.84   -93146.534    234.78214    20724     226933.4       -20.69     25.39344    84.873059    -172.3365    435.58504     23.50769    22.162335   0.24507844    435.83012    61.766674   -1887.4946 
    9500   -102815.96   -93138.592    235.00227    20724    226994.71   -39.024628    55.917703   -149.56154   -23.430049    435.64173    23.509335    22.163887   0.21673498    435.85847    89.599819   -1922.2209 
    9600   -102771.06   -93118.184    234.40753    20724    226987.43    95.934812    67.140601    148.17408     72.48976    435.64067    23.508987    22.163558   0.21726515    435.85793     61.87876   -1924.0347 
    9700   -102770.83    -93091.47    235.05061    20724    227025.41   -12.424181   -84.973905   -134.84839    182.54976    435.71416    23.508971    22.163543   0.18051962    435.89468    52.349288   -1934.5555 
    9800   -102713.51   -93079.656    233.94557    20724    226935.92    31.678523   -168.00395    197.69606    65.343458    435.62153    23.506835     22.16153   0.22683496    435.84837    52.784302   -1951.8617 
    9900    -102672.2   -93053.613    233.57475    20724    226959.54   -13.516499    77.841963   -67.719475   -50.671985    435.52578    23.510643    22.165119   0.27470933    435.80049    48.730913   -1971.8839 
   10000   -102489.02   -93042.206    229.40356    20724    226916.06    182.92825    132.08323   -101.15591    517.85743    435.53049    23.508263    22.162876   0.27235722    435.80284    35.932532   -1981.8126 
   10100   -102750.57   -93065.843     235.1811    20724    226917.37   -27.071415    -95.88317   -199.66758    214.33651    435.52573     23.50846    22.163061   0.27473428    435.80047    54.736424   -1968.3513 
   10200   -102612.46   -93040.695    232.43781    20724    226801.41    66.578027    53.614935    235.80397   -89.684826    435.43122    23.505003    22.159802    0.3219915    435.75321    40.914979   -1987.1903 
   10300   -102608.85   -93019.122    232.87412    20724    226860.91    98.107474    202.99107    242.98049   -151.64914    435.57821    23.504119    22.158969   0.24849398    435.82671    34.108797   -2001.3668 
   10400   -102604.16   -92967.757    234.00762    20724    226971.71    44.569648   -141.84695    96.484447    179.07144    435.50301    23.511888    22.166293   0.28609333    435.78911    43.040384   -2059.9588 
   10500   -102613.26   -92991.979    233.64028    20724    227061.67    22.162968   -59.737682    121.21636    5.0102276    435.58684    23.514284    22.168552   0.24418129    435.83102     48.90512   -2037.5333 
   10600   -102609.14   -93002.808    233.27725    20724    226963.53    28.461938    95.447719    64.441998   -74.503903    435.48515    23.511946    22.166348   0.29502275    435.78018     59.52815   -2041.3569 
   10700   -102648.54   -92976.455    234.87395    20724    227060.09   -43.524545   -72.591592    133.09566    -191.0777    435.76655    23.509352    22.163903   0.15432279    435.92088    36.808281   -2039.4907 
   10800    -102699.1   -93003.607    235.44251    20724    227020.66    3.4512664    12.857521    213.01512   -215.51884    435.57265    23.512543    22.166911   0.25127668    435.82392     52.70919   -2032.9677 
   10900   -102715.15   -92967.913    236.69899    20724    226988.52     18.24966    -10.12746    229.29285   -164.41641    435.44602    23.514297    22.168565   0.31459209    435.76061    46.141492   -2065.3619 
   11000   -102636.54    -92967.33     234.8041    20724    227063.23   -11.152444    52.969556    91.257355   -177.68424    435.74579    23.510075    22.164584     0.164707    435.91049     57.73541   -2073.7843 
   11100    -102667.1   -92954.929    235.84734    20724    227062.11    23.514766    49.998066   -202.85517     223.4014    435.79854    23.508594    22.163188   0.13832796    435.93687     49.04378   -2082.6493 
   11200   -102710.43   -92968.314     236.5745    20724    227147.43    19.152005   -106.22459   -92.630165    256.31077    435.59937    23.518386    22.172419    0.2379134    435.83729    44.215303   -2063.0137 
   11300   -102688.84   -92974.438    235.90152    20724    226952.95     1.861869    11.429019   -168.39261    162.54919    435.58401     23.50873    22.163316   0.24559466    435.82961    39.550547   -2057.0114 
   11400   -102594.25   -92951.998    234.14941    20724    227046.28    53.494373    137.72845     48.08185   -25.327181    435.55246    23.514415    22.168675   0.26137003    435.81383    36.430979   -2076.6496 
   11500   -102735.42   -92981.893    236.85174    20724    227168.79    -11.67549   -27.077757     159.5591   -167.50782    435.65845    23.517896    22.171958   0.20837304    435.86683     30.33539   -2036.5918 
   11600   -102559.41   -92985.322    232.49421    20724    226927.84   -14.972824    155.27146   -247.97365    47.783716     435.4369      23.5114    22.165833    0.3191507    435.75605    35.935498   -2046.2116 
   11700   -102627.77   -92907.868    236.03508    20724    227122.84    53.096885    79.131705    153.66186   -73.502906    435.72299    23.513776    22.168073   0.17610446     435.8991    38.326951   -2123.9516 
   11800   -102655.14   -92881.251    237.34606    20724    226993.93    12.706783   -169.80439    111.31109    96.613647    435.63484    23.509481    22.164024   0.22018024    435.85502    49.175988   -2165.1479 
   11900   -102643.74   -92926.781    235.96376    20724     226919.9    94.757898    189.15309    384.17482   -289.05421     435.5357    23.508322    22.162931   0.26974828    435.80545    46.071297   -2122.5154 
   12000   -102550.81   -92892.227    234.54607    20724     226840.4   -36.505435   -177.57768    249.72748    -181.6661    435.40426    23.507751    22.162393   0.33547186    435.73973    31.763436   -2139.5696 
   12100   -102673.95   -92890.973    237.56697    20724    227010.48    51.310082    128.13082   -72.265324    98.064753    435.64069     23.51018    22.164683   0.21725713    435.85794    36.284972    -2146.839 
   12200   -102620.26   -92838.917    237.52708    20724     227056.4   -23.488524    103.44481   -168.81246   -5.0979212    435.42672    23.518334     22.17237   0.32423964    435.75096    45.662827   -2204.4403 
   12300   -102525.98   -92832.475    235.39407    20724    226889.07    23.867116    87.011624   -199.35518    183.94491    435.54727    23.506412    22.161131    0.2639639    435.81124    31.741692    -2203.765 
   12400   -102546.06   -92884.542    234.61738    20724    226729.18    25.068158    28.341912   -47.037353    93.899917    435.39104    23.502344    22.157295   0.34207881    435.73312    61.847822   -2187.7373 
   12500   -102651.88   -92892.472    236.99443    20724    227080.07   -8.2550803   -19.822417    23.415635   -28.358458    435.69396    23.512346    22.166725   0.19062052    435.88458    56.752637   -2165.4918 
   12600    -102613.4   -92829.166    237.59747    20724     227089.5   -56.012201    48.313188   -183.00069   -33.349097     435.6474     23.51409    22.168369   0.21389829     435.8613    65.989118   -2235.5562 
   12700   -102494.85   -92850.175    234.20847    20724     226966.2   -30.517262   -149.31052    141.71974   -83.961011    435.60213    23.508927    22.163502   0.23653703    435.83866    92.376375   -2246.8984 
   12800   -102604.71   -92847.988    236.92924    20724    227052.32    40.426706    49.669584   -16.504235    88.114769    435.69134    23.510979    22.165437   0.19193052    435.88327    78.643036   -2237.7986 
   12900   -102476.31   -92820.968    234.46749    20724    226977.05    5.2525404   -27.291382     36.31257    6.7364338    435.37064    23.515738    22.169923   0.35228121    435.72292    95.330255   -2282.4653 
   13000   -102518.01   -92831.132    235.23325    20724    226928.51    5.3679802   -68.950818    43.732102    41.322657    435.43482    23.511491    22.165919   0.32019177    435.75501    89.586191   -2270.2359 
   13100   -102582.42   -92864.306    235.99167    20724    226941.29    26.187803    237.04909    98.211062   -256.69675    435.51188    23.510073    22.164582   0.28166106    435.79354    116.01964   -2265.6717 
   13200   -102639.11   -92822.876    238.37439    20724    227040.17   -70.206932    87.518671   -127.47758   -170.66188    435.51094    23.515219    22.169434   0.28213037    435.79307    108.79411   -2293.7146 
   13300   -102601.24   -92846.422    236.88312    20724    227036.25     9.373215    23.742583   -36.897934    41.274996     435.6924    23.510119    22.164625   0.19140099     435.8838    104.19449   -2270.3738 
   13400   -102479.49   -92800.224    235.04834    20724    227141.04   -67.629071    13.469756   -285.20125    68.844283     435.6668    23.516235    22.170391    0.2042011      435.871     109.6935   -2316.2581 
   13500   -102583.71   -92773.185    238.23575    20724    227076.88   -26.430359    31.429815   -324.51122    213.79032    435.79775     23.50938    22.163929   0.13872432    435.93648     93.35878   -2332.7653 
   13600   -102467.22    -92723.87    236.60465    20724    227016.71   -69.352147   -100.92519   -137.70034     30.56909    435.63299     23.51071    22.165183   0.22110373     435.8541    89.937365    -2378.759 
   13700   -102481.57   -92728.823    236.83287    20724    227267.13   0.95298923   -119.27747    61.076256    61.060185    435.78425    23.519591    22.173555   0.14547482    435.92973    66.990461   -2346.5771 
   13800   -102508.09   -92757.994    236.76839    20724     226970.9   -10.777678    159.77241   -114.49379   -77.611651    435.58479    23.509638    22.164172   0.24520514    435.82999    64.040051    -2325.626 
   13900   -102452.97   -92752.256    235.56928    20724    227204.36    -52.07598   -67.196173   -129.08817    40.056398    435.60061    23.521299    22.175166   0.23729509     435.8379    53.351638   -2313.4838 
   14000   -102389.28   -92719.932    234.80751    20724    227250.47   -8.6863679    125.00484    122.31387   -273.37782    435.69553    23.521123       22.175   0.18983679    435.88536    69.206991   -2361.2136 
   14100   -102659.39   -92757.992    240.44262    20724    227018.24   -79.670248   -63.044599    187.27171   -363.23785    435.44642    23.515826    22.170005   0.31438952    435.76081    40.925819   -2301.5345 
   14200   -102488.39   -92748.503    236.52057    20724    227026.54   -45.408858   -51.043747    41.779821   -126.96265    435.57859    23.512687    22.167047   0.24830629    435.82689    49.148904    -2319.805 
   14300   -102535.65   -92737.854    237.92676    20724    227094.16   -1.1137857    70.960429   -121.44708    47.145289    435.45419    23.519548    22.173515   0.31050527    435.76469    55.895135   -2340.4603 
   14400   -102517.16   -92709.811    238.15868    20724    227057.96   -33.549112   -88.310349   -88.067433    75.730446    435.60135      23.5137    22.168002   0.23692661    435.83827      64.6377   -2378.7993 
   14500   -102491.22   -92709.035    237.54768    20724    227172.84    84.614503   -79.031703    70.175677    262.69953    435.68655    23.517348     22.17144    0.1943264    435.88087    60.625311   -2375.3876 
   14600   -102496.96   -92736.034    237.03145    20724    226919.41   -37.269797   -39.845503   -123.76734    51.803457    435.37564    23.512617    22.166981   0.34977919    435.72542    55.777284   -2346.3075 
   14700   -102499.19   -92643.004    239.34458    20724    227079.85    16.964916    122.87617    158.38217   -230.36359    435.78947    23.509757    22.164284   0.14286685    435.93233     39.69838   -2424.1123 
   14800   -102448.98   -92655.942    237.81126    20724    226858.43   -38.752892    18.732691   -118.33994    -16.65143    435.68814    23.501025    22.156052   0.19352933    435.88167    30.632056    -2405.046 
   14900   -102464.42   -92634.306     238.7114    20724    226924.74    6.9228132    18.529761    14.408349   -12.169671     435.7259    23.503441     22.15833   0.17465239    435.90055    28.771569   -2427.1622 
   15000   -102431.39   -92600.956    238.71923    20724    227038.56   -43.774899   -148.12136   -166.93562    183.73227    435.66471    23.510986    22.165443   0.20524368    435.86996      24.1492   -2450.9132 
   15100   -102448.14   -92578.099    239.68118    20724    227143.09    19.804892     176.0942    277.80609   -394.48561    435.66852    23.516294    22.170447   0.20334016    435.87186    29.375554   -2482.5515 
   15200   -102343.33   -92545.749    237.92151    20724     227032.4   -8.2225429   -90.216452    45.064162    20.484661    435.89185     23.50454    22.159366  0.091676857    435.98352    27.012802   -2511.7905 
   15300   -102473.84   -92571.517    240.46492    20724    226977.92    16.757206    23.823574    138.81156   -112.36351    435.50436    23.512173    22.166562   0.28542131    435.78978    18.871183   -2482.7425 
   15400   -102407.08   -92528.567    239.88677    20724     227056.3   -5.7544509    242.18023   -1.7151222   -257.72846    435.52226    23.515749    22.169933    0.2764688    435.79873   -4.0846486    -2500.997 
   15500   -102407.25   -92555.745    239.23104    20724    227032.04      21.2615    34.719622   -122.40386    151.46874    435.58368    23.512835    22.167186   0.24575814    435.82944    17.150754   -2497.4545 
   15600   -102423.39   -92551.995    239.71389    20724    226972.45   -11.279977    -59.84628   -252.31254    278.31889     435.8508    23.502544    22.157484   0.11220159      435.963    9.4885288   -2496.5086 
   15700   -102454.64   -92560.474    240.26686    20724    227034.89    -43.53871   -163.38651   -109.53467    142.30506     435.9204      23.5039    22.158762  0.077400718     435.9978    7.0424747   -2483.0277 
   15800   -102364.59   -92514.041    239.20773    20724    227177.91     66.59872    41.808267   -141.79441     299.7823    435.77695    23.515171    22.169388   0.14912271    435.92608    16.691444   -2541.4337 
   15900   -102374.81   -92501.962     239.7493    20724    227056.48   -52.978803   -191.50606    145.81005   -113.24039    435.83716    23.507262    22.161932   0.11901771    435.95618    9.8406874   -2544.7522 
   16000   -102353.36   -92480.413     239.7517    20724    227297.48    9.5164371    111.74088   -66.943262   -16.248304    435.80147    23.520697    22.174598   0.13686664    435.93833    15.169109   -2569.5411 
   16100   -102351.91   -92458.612    240.24595    20724    227183.99   -20.594417   -182.64343    323.47448    -202.6143    435.62522     23.51958    22.173545   0.22499033    435.85021    19.443439   -2601.6696 
   16200   -102427.42   -92459.942     242.0471    20724    227268.74   -93.859515     -2.10749    37.710492   -317.18155    435.86076     23.51761    22.171688   0.10722079    435.96798    3.0241709    -2576.597 
   16300   -102363.56    -92485.37    239.87901    20724    227305.19     8.186305   -45.576478   -48.088185    118.22358    435.77583    23.521788    22.175626   0.14968471    435.92552    33.797463   -2588.6223 
   16400   -102377.71   -92472.238     240.5416    20724    227294.65   -34.572798    40.664077   -145.07075   0.68827553    435.82016    23.520046    22.173984    0.1275205    435.94768     31.62122   -2597.4903 
   16500   -102308.18   -92471.877     238.8617    20724    227288.14    19.505655    20.388106    295.02396    -256.8951    435.87824    23.518142    22.172189  0.098482208    435.97672    20.647858   -2591.3074 
   16600   -102309.89   -92438.422    239.71574    20724    227373.62    31.561157    -14.20237   -10.667326    119.55317    435.99483    23.519419    22.173393  0.040187249    436.03501    8.2958132   -2611.1684 
   16700   -102344.11   -92384.878    241.84704    20724     227383.7   -69.354295    -40.75962   -244.78332    77.480054    435.89309    23.522685    22.176472  0.091054992    435.98415    12.965119   -2663.4238 
   16800   -102278.96   -92429.738    239.17565    20724    227256.53    17.549805    106.26286    83.729564   -137.34301    435.77002    23.519426      22.1734   0.15258883    435.92261   -2.7832337   -2614.2234 
   16900   -102290.66   -92426.654    239.53444    20724    227297.78    80.336121    15.172418    266.05164   -40.215699    435.69793    23.523507    22.177247   0.18863439    435.88657    6.6048158   -2630.3719 
   17000   -102276.93    -92420.46    239.35146    20724    227199.41   -1.7920664   -46.842881   -313.78623    355.25292    435.79439    23.515813    22.169993   0.14040313     435.9348    36.308631    -2664.113 
   17100   -102245.26   -92383.608    239.47735    20724    227133.24    28.164998   -57.537899    258.11261   -116.07971    435.85686    23.510703    22.165176   0.10916789    435.96603    15.988109   -2685.0098 
   17200    -102292.6   -92392.029     240.4224    20724    227222.92    29.950356    45.970367   -46.651205    90.531907    435.81048    23.516596    22.170732   0.13236168    435.94284    28.438316    -2687.303 
   17300   -102209.29   -92374.768    238.81846    20724       227061   -24.741055   -91.830587   -22.591881    40.199302    435.67472    23.511877    22.166283   0.20024029    435.87496    14.643754   -2693.6201 
   17400   -102317.08   -92361.906    241.74848    20724    227245.18    21.510055    119.63303     48.65639   -103.75926    435.71874    23.520223    22.174151    0.1782287    435.89697    29.703039   -2721.8179 
   17500   -102371.34   -92394.832    242.26641    20724    227147.32   -59.189452    112.06189   -115.41337   -174.21688    435.78395    23.513398    22.167717   0.14562433    435.92958    61.004148   -2719.5911 
   17600   -102250.13   -92357.007    240.24156    20724     227476.1    35.186185   -54.872801     84.44357    75.987784    436.03428    23.523654    22.177386  0.020459651    436.05474    35.961984   -2727.6043 
   17700   -102300.56   -92340.596    241.86478    20724    227319.65    14.875175    76.995814    151.65321    -184.0235    435.72986    23.523776    22.177501   0.17266894    435.90253    57.288601   -2770.9359 
   17800   -102289.78   -92327.909    241.91095    20724    227311.49    9.3265271    61.719719   -108.04129    74.301149     435.7495    23.522824    22.176603   0.16284914    435.91235    21.590819   -2748.7622 
   17900   -102296.36    -92335.32    241.89095    20724    227350.76   -74.082635   -35.757473   -321.06467    134.57424     435.8552    23.522003    22.175829   0.10999838     435.9652       54.096   -2770.7239 
   18000   -102273.74   -92321.913    241.66728    20724    227279.06    -47.83202    5.4942118   -221.91384    72.923568    436.02471    23.513722    22.168022  0.025242527    436.04996    56.180113   -2790.1256 
   18100   -102288.23   -92302.746    242.48446    20724    227292.54    -51.03123   -49.910405    24.596559   -127.77985    435.81768    23.520004    22.173944   0.12876216    435.94644     52.42592    -2805.224 
   18200   -102246.52    -92261.93    242.46281    20724     227113.6    54.319701    106.14574    137.22029   -80.406925    435.77714    23.511837    22.166245   0.14903098    435.92617    26.588803   -2829.8778 
   18300   -102227.62   -92292.377    241.26438    20724    227374.66    8.2730439   -129.51406     25.93064    128.40255    435.78962    23.525009    22.178664   0.14279168    435.93241    55.425361   -2821.4065 
   18400   -102208.08   -92263.412    241.49326    20724    227273.03   -17.881966   -122.31607    184.75507    -116.0849    435.69737    23.522241    22.176054   0.18891749    435.88628    44.391606   -2840.9972 
   18500   -102216.18    -92302.11    240.75039    20724    227188.52     34.77529    241.81816    20.791586   -158.28388    435.77288     23.51583     22.17001   0.15116136    435.92404     44.13872   -2808.9155 
   18600   -102195.47    -92288.01    240.58975    20724    227462.03    68.933494   -74.161053    14.187814    266.77372    435.84913    23.527922     22.18141   0.11303537    435.96216    62.534625   -2834.9983 
   18700   -102291.84   -92288.034     242.9295    20724       227392   -67.714758    2.4508973     82.05536   -287.65053    435.77862    23.526203    22.179789   0.14828758    435.92691    47.026605   -2817.6632 
   18800   -102168.93    -92247.75    240.92284    20724    227406.88    86.619335    276.35124   -6.9548152   -9.5384194    435.98482    23.521409    22.175269  0.045187796    436.03001    54.873922   -2872.2453 
   18900   -102106.82   -92234.715    239.73123    20724    227251.56   -13.699516      2.94208   -93.912671    49.872044    436.05484    23.511487    22.165915  0.010182021    436.06502    43.388056   -2874.3691 
   19000   -102320.61   -92282.147    243.77096    20724     227404.1    58.749966   -19.597472    -97.94616    293.79353    436.04414    23.519665    22.173625  0.015529231    436.05967    71.877011   -2857.8767 
   19100   -102172.01   -92255.548    240.80829    20724    227279.59   -20.433273   -57.896643    117.96693   -121.37011     436.0362     23.51344    22.167756  0.019498071     436.0557    60.845897   -2872.1948 
   19200   -102195.97   -92251.335    241.49243    20724    227292.99     23.83958   -14.705089    1.9411219    84.282707    435.88317     23.51826      22.1723  0.096013944    435.97919    66.396935   -2886.2185 
   19300   -102203.22   -92276.219    241.06438    20724    227344.85    69.501631    135.25821   -26.721443    99.968126    435.70578     23.52573    22.179343   0.18470841    435.89049    68.287803   -2864.8457 
   19400   -102248.66   -92277.996    242.12461    20724    227257.92    29.474312    131.49224    67.729917   -110.79922     435.9956    23.513413    22.167731  0.039797804     436.0354    77.159217   -2875.3106 
   19500   -102135.03   -92244.883    240.16929    20724    227349.52    25.922323    71.990784    108.65425   -102.87806    435.97188    23.518791    22.172801  0.051659497    436.02354    79.095554   -2905.9614 
   19600   -102165.38   -92222.965    241.43859    20724    227327.91   -14.140039    104.30437   -290.31852    143.59404    436.17229     23.51227    22.166653 -0.048546584    436.12375    58.262958   -2905.8254 
   19700   -102093.78   -92176.203    240.83555    20724    227372.16    84.215364   -195.95623    72.027513    376.57481    435.74808    23.526002    22.179599   0.16356217    435.91164    46.480556    -2944.623 
   19800   -102095.72   -92176.536    240.87436    20724    227282.73    68.605845    202.18514    58.140598   -54.508206    435.83933    23.518912    22.172915   0.11793345    435.95727    61.433673   -2963.8353 
   19900   -102196.21   -92202.051     242.6951    20724    227269.05    24.298006    89.773674    142.65935   -159.53901    435.85027    23.517909     22.17197   0.11246264    435.96274    63.397205   -2941.8812 
   20000   -102114.99   -92183.863    241.16445    20724    227221.52    108.25644    134.50143     147.6298    42.638092    435.80167    23.516761    22.170887    0.1367626    435.93844    63.651362   -2965.0033 
   20100   -102052.47   -92173.301    239.90284    20724    227217.66    30.347223   -14.768672    77.522324    28.288016    435.60362    23.521906    22.175738   0.23578808    435.83941    80.050112   -2988.4334 
   20200   -102094.83   -92160.194    241.24962    20724    227128.17   -45.678025    11.755755   -214.79065     66.00082    435.57617    23.518015    22.172069   0.24951315    435.82569    76.418597   -2999.3515 
   20300   -102030.24   -92138.167    240.21598    20724     227109.4    40.037867    226.96981   -28.237458   -78.618747    435.62198    23.515806    22.169987   0.22660773    435.84859     85.41876   -3034.8951 
   20400   -102048.36   -92115.951    241.19566    20724    226999.89    28.249571    118.35918   -5.0830986   -28.527371    435.47268    23.514166    22.168441   0.30125885    435.77394    57.145453   -3032.9255 
   20500   -102114.45   -92101.343    243.15524    20724    227014.84   -61.631306    65.366094   -118.93375   -131.32626     435.3619    23.517932    22.171991   0.35665114    435.71855    73.188458   -3058.9207 
   20600    -102046.1   -92039.791    242.99015    20724    226839.36    24.065662   -62.706326    47.161165    87.742145    435.28172    23.511006    22.165461   0.39673876    435.67846    77.334835   -3134.6289 
   20700   -101973.02   -92072.981    240.40955    20724    226933.68    48.437337   -34.372364    116.87796    62.806419    435.39982    23.512703    22.167062   0.33768856    435.73751    65.664136   -3088.0664 
   20800   -102007.08    -92047.91     241.8454    20724    227059.94    52.426972    156.90843    61.933643   -61.561155    435.42007    23.518697    22.172712    0.3275652    435.74763     42.51392   -3084.7852 
   20900   -102073.36   -92093.862    242.33905    20724    226893.11   -58.360262   -114.01513   -179.20577    118.14011    435.35198    23.511894    22.166299   0.36161186    435.71359    64.465858   -3064.8519 
   21000      -102122   -92095.779    243.47364    20724       226897   -73.207671    132.64417   -46.316653   -305.95053    435.31231    23.513167    22.167499   0.38144406    435.69376    72.864231   -3075.0503 
   21100   -101967.59   -92001.594    242.01126    20724    226836.36   -44.738682   -227.41461   -66.976586    160.17515    435.45375    23.506206    22.160936   0.31072744    435.76447    68.074299   -3165.6084 
   21200   -102089.39    -92001.89    244.96168    20724    226888.85   -51.475196    139.47873   -108.76781    -185.1365    435.24694     23.51451    22.168765   0.41413097    435.66107    55.973345   -3154.6061 
   21300    -101935.9   -91983.158    241.68934    20724    226917.18    10.073594    70.371796    239.31237   -279.46338    435.16262    23.518256    22.172297   0.45629199    435.61891    61.467743   -3179.2538 
   21400   -101978.75   -91964.699    243.17824    20724    226811.09    89.667212    113.31619    157.33308   -1.6476388    435.12154    23.513867    22.168159   0.47682947    435.59837    43.149118   -3189.9184 
   21500   -101864.86   -91928.958     241.2804    20724    226886.54   -37.038777   -65.740618   -70.182808    24.807094    435.28119    23.513465     22.16778    0.3970029     435.6782    43.812858   -3215.3324 
   21600   -101836.37   -91929.737     240.5696    20724    226832.91    13.649191    39.630015   -73.708544    75.026102    435.07749    23.516189    22.170348    0.4988546    435.57635    43.148086   -3219.5914 
   21700   -101931.02   -91955.468    242.24331    20724    226918.16   -8.3979631    152.52895   -245.01328    67.290448    435.34121    23.513482    22.167796   0.36699596     435.7082    38.657861   -3187.7092 
   21800   -102021.75   -91958.559    244.37158    20724    226774.54    -72.31938    56.485656   -22.889095    -250.5547     435.1628    23.510858    22.165322   0.45620118      435.619    48.360208   -3197.9043 
   21900   -101871.48   -91898.882    242.17167    20724    226837.86   -151.90262   -159.07696   -206.49697   -90.133925    435.02583    23.517841    22.171906   0.52468263    435.55052    46.286133    -3249.989 
   22000    -101919.2   -91945.143     242.2071    20724    226666.45   -15.704247    73.819205    173.24036    -294.1723    434.94868     23.51104    22.165493   0.56326249    435.51194    45.110399   -3214.8458 
   22100   -102003.71   -91922.935    244.79846    20724    226687.43    -70.08054   -160.84667   -152.95745     103.5625    434.97725    23.511355    22.165791   0.54897363    435.52623    36.478738   -3226.8439 
   22200   -101858.29   -91874.991    242.43138    20724    226646.94   -7.2187529   0.63905557     252.9268   -275.22212    434.84173    23.512918    22.167265   0.61673262    435.45847    18.026747   -3259.8294 
   22300   -101869.52   -91883.491     242.4976    20724    226427.47    62.942905    17.570242    51.919629    119.33884    434.59415    23.508225     22.16284   0.74052635    435.33467    29.514615   -3273.2253 
   22400   -101804.04   -91864.843    241.36036    20724    226582.87     94.92718    141.40915    61.666078    81.706314    434.86559     23.50895    22.163523   0.60480581    435.47039    68.572068   -3327.7954 
   22500   -101911.02    -91895.23    243.22044    20724    226567.32    6.2143895    75.127987   -126.36165    69.876835    434.65455     23.51385    22.168143    0.7103275    435.36487    67.600194   -3296.5619 
   22600   -101852.71   -91872.052     242.3673    20724    226722.27    106.62512   -109.46251    -113.5109    542.84876    435.01572    23.512122    22.166514   0.52973906    435.54546     50.20877   -3303.3243 
   22700   -101937.23   -91851.581    244.91674    20724    226712.22   -8.6995379 -0.014775721    26.455244   -52.539082    435.08518    23.509724    22.164253   0.49500785    435.58019    53.064732   -3320.8087 
   22800   -101704.37   -91841.789    239.49988    20724    226634.38    65.830141     142.0488   -30.504587    85.946209    434.98457    23.508406    22.163011   0.54531666    435.52988    48.022062   -3331.2089 
   22900   -101872.61   -91850.919    243.36377    20724    226680.31   -40.108984   -56.505615    181.69998   -245.52131    434.92952    23.512276    22.166659   0.57283992    435.50236    52.231606   -3324.2719 
   23000   -101865.88   -91856.442    243.06609    20724    226694.25    43.169519    -6.158528    17.636551    118.03053    434.81111      23.5162    22.170359   0.63204348    435.44316    39.257481   -3309.9043 
   23100   -101926.58   -91809.548    245.67886    20724    226563.96    10.247703   -32.412048   -65.046072    128.20123    434.65249    23.513731    22.168031    0.7113557    435.36384    44.396395   -3367.5812 
   23200   -101806.57   -91839.685    242.03272    20724    226431.46    30.211016   -71.758798   -48.394726    210.78657    434.74169    23.504442    22.159274   0.66675467    435.40845    62.237156   -3356.7605 
   23300    -101800.4   -91841.233    241.84528    20724    226375.63   -54.560669   -63.237032   -366.73817    266.29319    434.48152     23.50858    22.163174   0.79684121    435.27836    37.833169   -3330.8423 
   23400   -101857.46   -91774.032      244.863    20724    226725.59    -18.95551    7.4714828   -210.67706    146.33904    434.87984    23.515968    22.170139   0.59768003    435.47752    35.916437   -3387.9279 
   23500   -101873.92   -91750.633    245.83079    20724    226406.99   -113.50211   -56.808058   -48.206041   -235.49223     434.4474    23.511131     22.16558   0.81389859     435.2613    37.070994   -3417.5673 
   23600   -101838.93   -91734.948    245.36199    20724    226593.83   -101.11603    115.27813   -314.77122   -103.85501    434.46027    23.520482    22.174395   0.80746325    435.26774    24.992567   -3421.4084 
   23700   -101804.02   -91734.683    244.52077    20724    226606.26    53.280591    155.53989   -209.20961     213.5115    434.76956    23.512759    22.167115   0.65282206    435.42238    32.491402   -3435.0049 
   23800   -101778.14   -91736.625    243.84509    20724    226462.84    39.795436    307.53436    120.40805    -308.5561     434.5452    23.511385    22.165819   0.76499968     435.3102  -0.95108636   -3405.8669 
   23900   -101754.22   -91678.641    244.67244    20724    226691.53   -6.9715587    117.65579   -86.582816    -51.98765    434.79223     23.51657    22.170707   0.64148401    435.43372    6.7780386   -3461.0633 
   24000   -101855.64   -91773.301    244.83643    20724    226744.23   -46.717537   -187.36236   -150.84653    198.05628    434.97786    23.514284    22.168552   0.54867078    435.52653    31.218683   -3390.1199 
   24100    -101788.4   -91751.391    243.73558    20724    226773.46   -10.960802    -83.24944    16.400033       33.967    434.79459    23.520755    22.174653   0.64030473     435.4349    36.807601   -3421.2817 
   24200   -101808.97   -91744.226    244.40929    20724    226522.08    16.363921   -45.369951   -194.12151    288.58322    434.74929     23.50894    22.163514    0.6629556    435.41224    16.421991   -3415.1158 
   24300   -101816.43   -91748.152    244.49491    20724    226605.12   -28.940475   -74.744983   -36.764611    24.688168    434.78455    23.512295    22.166677   0.64532316    435.42988    15.505819   -3407.6104 
   24400   -101863.56   -91710.686    246.54939    20724    226725.81    -50.02196   -77.385167   -43.234834   -29.445878    435.03143    23.511881    22.166287   0.52188524    435.55331     4.123258   -3430.5372 
   24500   -101819.97   -91704.687    245.63639    20724    226642.67    7.3768513    43.594953     86.13246   -107.59686    434.91393    23.510745    22.165216   0.58063314    435.49457    24.667633   -3461.1654 
   24600   -101711.52   -91603.666    245.45601    20724    226772.05    3.6382837   -87.919117   -28.368768    127.20274    434.83467    23.519598    22.173562   0.62026289    435.45494    25.918148   -3560.3526 
   24700   -101611.45   -91620.418    242.61927    20724     226658.2     27.24123   -39.420551    29.629414    91.514829    434.81273    23.514287    22.168555   0.63123677    435.44396    22.908664   -3545.3677 
   24800   -101690.62   -91575.278    245.63783    20724    226783.77    77.169618    190.78876   -57.668594    98.388691    434.95703    23.516897    22.171016   0.55908674    435.51611    13.288143   -3581.4933 
   24900   -101640.04   -91611.971    243.51853    20724    226793.05    26.550454   -90.335228    107.50496    62.481632    434.99805     23.51627    22.170424   0.53857719    435.53662    6.2585067    -3535.554 
   25000   -101659.26   -91566.876    245.08032    20724    226776.12   -4.0258324    98.584762   -200.10513    89.442874    434.85488    23.519263    22.173246   0.61015891    435.46504   -4.4849391   -3570.2306 
   25100   -101598.62   -91615.391    242.42969    20724    226628.13    52.603663    76.004465   -11.136027    92.942552    434.73585    23.514806    22.169044   0.66967252    435.40553    27.979471   -3562.5901 
   25200   -101671.78   -91587.398    244.88613    20724    226889.19   -18.492092   -269.16467  -0.23534249    213.92374    434.94132    23.522787    22.176569    0.5669403    435.50826    22.962194   -3576.2968 
   25300   -101620.55   -91546.625    244.63222    20724    226896.81    78.340925    93.678872    11.999014    129.34489    434.84687    23.525737     22.17935    0.6141635    435.46104    11.955274   -3613.3273 
   25400   -101683.62   -91534.229    246.46467    20724    226829.58    -39.78859   -15.881541   -40.888926   -62.595303    434.79607    23.523626    22.177359   0.63956697    435.43563     31.84772   -3643.9407 
   25500   -101575.95   -91526.651    244.03417    20724    226908.65    34.556641    161.81687   -113.13053    54.983586    434.92783    23.524161    22.177864    0.5736862    435.50151    32.946282   -3651.5236 
   25600   -101599.41   -91552.478     243.9766    20724     226731.5    98.404563   -22.260151    351.70387   -34.230031    434.86044    23.516798    22.170923   0.60737934    435.46782    51.943562   -3652.0297 
   25700   -101535.06   -91562.993    242.15855    20724    226812.76    21.836429   -123.74064    82.809646    106.44028    435.24341    23.510662    22.165137   0.41589252    435.65931    60.077402   -3647.6148 
   25800   -101587.67   -91526.765    244.31604    20724    226751.76    33.321469    18.313862    155.15291   -73.502368    435.01227    23.513744    22.168043    0.5314661    435.54373    36.236547   -3664.2627 
   25900   -101612.34   -91556.352    244.19655    20724     226802.8    24.401926    21.359973   -146.07817    197.92397    434.61499    23.527136    22.180669   0.73010603    435.34509    39.566607    -3636.743 
   26000   -101507.02   -91536.575     242.1192    20724    226612.17    53.976141    41.762196   -253.47263    373.63885    434.73474    23.514008    22.168291   0.67022976    435.40497    22.638456   -3646.1983 
   26100   -101630.21   -91536.061    245.12325    20724    226714.46     84.69963     46.82834   -266.72364    473.99419    434.97192    23.512901    22.167248   0.55164043    435.52356    19.292323   -3644.7856 
   26200   -101656.56   -91540.487    245.65555    20724    226631.44   -86.493437   -22.185441   -125.07233   -112.22254    434.82211    23.512645    22.167007   0.62654644    435.44865   -1.8844805   -3613.4991 
   26300   -101589.48    -91496.64    245.09142    20724    226695.69   -10.439787   -43.200244   -80.471057    92.351941    434.71978    23.518745    22.172758   0.67771126    435.39749     17.76016   -3679.7472 
   26400   -101515.23   -91434.626    244.79431    20724    226706.46     38.29708    58.551074    83.978157   -27.637989    434.84197    23.515999    22.170169   0.61661448    435.45859   -3.2402583   -3720.9542 
   26500   -101537.41   -91410.534    245.91804    20724    226821.05    35.159886    52.481567    23.223294    29.774797      435.093    23.515155    22.169373   0.49109959     435.5841   -7.1300769    -3739.837 
   26600    -101544.3   -91433.305    245.53235    20724    226714.89   -20.259158   -30.512559   -8.2271945   -22.037721     435.0724    23.510208    22.164709   0.50139886     435.5738    10.265062   -3736.6334 
   26700   -101514.52   -91452.503    244.34292    20724    226783.29    85.034498    168.13497    146.80697   -59.838451    435.12798    23.512252    22.166637   0.47361044    435.60159    1.1661786   -3712.4009 
   26800   -101659.07   -91465.414    247.53958    20724    226753.33   -40.130049   -116.19351    -118.8054    114.60877    435.32089    23.505489    22.160261   0.37715484    435.69805     12.88798   -3707.7123 
   26900   -101599.79   -91461.933     246.1846    20724    226711.59    35.125259   -79.097696   -4.8026136    189.27609    435.25843    23.505012    22.159811   0.40838734    435.66681   -10.621803   -3692.4391 
   27000   -101570.37   -91491.892    244.74269    20724    226796.16    45.123014    16.356944   -21.353815    140.36591    435.27645    23.508909    22.163485   0.39937745    435.67582    9.4984797   -3681.8833 
   27100   -101501.13   -91466.466    243.67879    20724    226577.31      61.3127   -232.62351    223.71653    192.84508    435.23566    23.498665    22.153827   0.41977249    435.65543    -9.179748   -3696.7373 
   27200   -101569.01   -91466.345    245.33016    20724    226728.14   -5.0713654    15.534308    75.299398    -106.0478    435.15672    23.508617     22.16321   0.45924172    435.61596    1.4111403   -3700.6933 
   27300   -101543.45   -91419.257    245.85282    20724    226766.58    27.184328    57.594254   -90.328104    114.28683    435.12644    23.511428     22.16586   0.47437938    435.60082   -17.423323   -3731.9274 
   27400   -101583.27   -91474.047    245.48936    20724    226612.28    55.318315    250.09275   -107.00019    22.862385    435.10168    23.504096    22.158947   0.48676154    435.58844   -3.5929482    -3698.374 
   27500   -101532.11   -91454.754    244.71536    20724    226588.27    63.858127    3.9930112    76.038364    111.54301    434.86405    23.509271    22.163826   0.60557441    435.46963     11.02354   -3732.8428 
   27600   -101524.66   -91480.017    243.92111    20724    226513.15    88.725968    80.914261    89.545038    95.718605    434.74638    23.508555    22.163151   0.66441228    435.41079   0.45777495   -3702.2398 
   27700   -101516.17   -91486.415    243.55946    20724    226370.85    36.771008   -258.97077    82.019647    287.26415     434.5228    23.507215    22.161888    0.7762018      435.299    8.7665947   -3706.5902 
   27800   -101533.35    -91472.78    244.30777    20724    226527.25    31.545875    13.916658    200.06983   -119.34887    434.57742    23.513856    22.168149   0.74888915    435.32631   -17.832107   -3691.0856 
   27900   -101594.27   -91471.429    245.82003    20724    226346.58      61.4198    111.93755    12.093622    60.228231       434.39    23.509547    22.164087   0.84259823     435.2326   -25.319211    -3692.208 
   28000   -101533.66    -91467.08    244.45379    20724    226464.56    3.3179149   -161.26077    -124.5412    295.75572    434.61346    23.509628    22.164162   0.73086834    435.34433   -6.1604643   -3710.0486 
   28100   -101401.93   -91419.745    242.40424    20724    226450.68    25.340269   -165.45576    138.61738    102.85918    434.61807    23.508782    22.163365   0.72856467    435.34664    -20.05192   -3746.9973 
   28200   -101488.81   -91392.858    245.16695    20724    226560.48    34.331862    182.41479    33.811343   -113.23054    434.49194    23.517894    22.171956   0.79163022    435.28357   -38.296101   -3754.2444 
   28300   -101485.72   -91370.798    245.62779    20724    226402.25   -60.938126   -140.46332    2.8139386   -45.164991    434.56047    23.507827    22.162464   0.75736552    435.31783   -34.880982   -3780.2904 
   28400   -101540.23   -91316.081    248.28004    20724    226532.27   -49.536178   -330.95078   -102.15314    284.49539    434.46802    23.517077    22.171185   0.80359102    435.27161   -62.496164    -3806.768 
   28500   -101475.47   -91288.329    247.38151    20724    226432.25    84.887314     171.0722    58.908711    24.681033     434.4012    23.513693    22.167995   0.83699868     435.2382    -67.85157   -3838.3748 
   28600   -101466.41    -91316.38    246.48029    20724    226292.84   -15.458946   -155.04874    91.395191    17.276707    434.49307    23.503969    22.158827   0.79106674    435.28413   -53.204018    -3827.044 
   28700   -101398.29   -91270.634    245.93686    20724     226203.6    9.8217919    124.11023     -146.914    52.269149    434.30621    23.504388    22.159222   0.88449437    435.19071   -81.936593   -3845.9437 
   28800   -101405.48   -91310.463    245.14442    20724    226209.78   -4.0235506   -46.946034   -69.566145    104.44153    434.28007    23.505417    22.160192   0.89756252    435.17764   -68.359729   -3821.9197 
   28900   -101355.57   -91246.697    245.48077    20724    226381.93    20.320468    159.35676    65.037018   -163.43237    434.13181    23.518373    22.172408   0.97169283    435.10351   -92.934538   -3860.2613 
   29000   -101430.86    -91310.79    245.75276    20724    226233.02    51.155592   -128.13887   -8.9559443    290.56159    434.03848    23.513165    22.167497    1.0183598    435.05684   -66.079666   -3830.0827 
   29100    -101439.2   -91303.113    246.14164    20724    226352.94   -46.917495    52.038628    49.109329   -241.90044    434.20417    23.514908    22.169141   0.93551626    435.13968   -75.865201   -3820.4649 
   29200   -101476.69   -91323.935    246.54639    20724    226243.19   -12.589434    35.624126    -159.1766    85.784176    433.82237     23.51955    22.173516     1.126415    434.94878    -88.53279   -3793.6196 
   29300   -101537.46   -91351.191    247.36032    20724    226172.89   -26.350141   -5.9803724   -132.46128     59.39123    433.98223    23.511564    22.165987    1.0464834    435.02872   -67.366084   -3791.2036 
   29400    -101457.8   -91307.817    246.47912    20724    226065.33   -6.1101219   -59.938736    -111.2826    152.89097    433.79977    23.510915    22.165376    1.1377142    434.93749   -61.130941   -3844.6264 
   29500   -101491.56    -91283.36    247.89293    20724    226270.85   -69.486507    60.313675    31.525478   -300.29867    434.03788    23.515147    22.169366     1.018658    435.05654   -61.014656   -3861.3103 
   29600   -101445.18   -91261.377    247.30035    20724    226060.23   -42.618672   -103.51274    92.798676   -117.14195    433.70737    23.513155    22.167487    1.1839161    434.89128   -59.671629   -3894.3658 
   29700   -101392.32   -91231.888    246.73291    20724    226104.93   -47.221774   -85.207057    3.6312995   -60.089566    433.76418    23.513939    22.168227    1.1555088    434.91969    -87.04729     -3893.79 
   29800   -101312.29   -91211.266    245.29032    20724    225915.09    59.092908     77.84602   -81.964103    181.39681     433.7126    23.505463    22.160236    1.1812982     434.8939   -100.91809   -3914.2963 
   29900   -101350.31    -91200.61    246.47225    20724    226105.25    -11.02056     243.7504   -68.235184    -208.5769    433.85942    23.511375    22.165809    1.1078877    434.96731   -95.263947   -3922.4773 
   30000   -101298.44   -91188.223    245.51333    20724    226076.43   -16.474234   -191.80462   -104.80039    247.18231    433.89998    23.508777    22.163361    1.0876113    434.98759   -88.432623   -3944.7759 
   30100   -101334.51   -91196.293    246.19346    20724    226079.91    38.640611    85.013431    103.03346   -72.125064    434.05978     23.50463    22.159451    1.0077085    435.06749   -82.513557   -3946.1928 
   30200    -101377.7   -91173.981    247.78393    20724    226165.35   -17.585506    -62.41519    167.50861   -157.84994    433.82552    23.515418    22.169621    1.1248416    434.95036    -101.5191   -3945.0633 
   30300   -101316.59   -91169.533    246.40814    20724    226118.13    37.778487    65.416947   -34.372419    82.290933    433.83345    23.512748    22.167104    1.1208749    434.95433   -109.35949   -3945.8132 
   30400   -101371.62   -91149.976    248.21935    20724    226189.73    32.438526   -117.45987   -155.79111    370.56656     433.9574    23.513112    22.167447    1.0589017     435.0163   -113.52386   -3959.3086 
   30500   -101400.73   -91173.676    248.35071    20724    226025.92   -9.7489625   -18.335474   -36.281291    25.369878    433.90671    23.505969    22.160713    1.0842458    434.99095   -94.329226   -3958.2371 
   30600   -101365.23   -91145.024    248.18449    20724     226074.1   -54.817824   -136.16841    -10.81439   -17.470669    434.10827    23.503015    22.157929   0.98346291    435.09174   -72.157795   -4008.2305 
   30700   -101372.68   -91111.376    249.18238    20724    226166.55   -15.326432    40.094253    105.78249   -191.85604     434.0831    23.508502    22.163101   0.99604761    435.07915   -99.569847   -4013.1244 
   30800   -101315.99   -91114.785    247.72303    20724     226112.2    38.445351    289.89223   -121.49851   -53.057672    433.96587    23.508852    22.163431    1.0546644    435.02054   -77.847881   -4037.2752 
   30900   -101245.57   -91083.557    246.77114    20724    226206.57    13.407219    2.3698913   -341.63932    379.49109    433.94383    23.514355    22.168619    1.0656829    435.00952   -93.636031   -4049.9962 
   31000   -101203.31   -91069.489    246.08653    20724    226184.45    16.699075    140.32501    308.58342   -398.81121    434.13453     23.50804    22.162666   0.97033737    435.10486   -99.969525   -4059.0951 
   31100   -101308.14   -91073.833    248.52671    20724    226145.98    44.088474    125.13216    8.5013419    -1.368082    434.00153    23.509642    22.164176     1.036836    435.03836    -91.85395   -4066.8849 
   31200    -101249.5   -91052.642    247.61747    20724    226282.43    19.889154    194.27197    30.389094    -164.9936    434.12439    23.513406    22.167724   0.97540401     435.0998   -86.517295   -4088.9246 
   31300   -101207.33   -91048.792    246.68684    20724    226126.95    34.914054     128.0894   -15.356608   -7.9906338    433.71782    23.516341    22.170491    1.1786916    434.89651   -71.300806   -4116.6339 
   31400   -101274.39   -91037.531    248.58876    20724    226128.61    -143.5099   -182.02297   -276.87168    28.364966    433.74956    23.515567    22.169761    1.1628212    434.91238   -68.131455   -4120.9026 
   31500   -101227.33   -91029.648    247.63745    20724    226205.37    63.555521    2.6658306    144.48712    43.513609    433.90792    23.515265    22.169477    1.0836425    434.99156   -92.521932   -4115.8336 
   31600   -101176.54   -91031.877    246.34993    20724    226065.69     92.87463    283.80067    92.684787   -97.861569    433.89827    23.508265    22.162878    1.0884653    434.98673   -83.030008   -4129.8877 
   31700   -101258.67   -91029.155    248.41033    20724    226321.54   -29.276856    54.617322   -56.583792   -85.864097    434.03127     23.51796    22.172018     1.021966    435.05323    -80.96451     -4121.71 
   31800   -101181.68   -91013.298    246.92589    20724    226259.36   -55.885462     36.85423   -259.29873    54.788114    433.90351    23.518191    22.172236     1.085847    434.98935   -81.037943   -4138.3254 
   31900   -101332.36   -91016.809    250.49964    20724    226247.09   -38.268463   -122.07307   -18.801228    26.068911    434.08191     23.51272    22.167077   0.99664352    435.07856   -94.065497   -4124.5566 
   32000   -101229.86    -91023.18    247.85588    20724    226352.31    3.4419035    85.112811   -253.37591    178.58881    433.90729    23.522919    22.176693    1.0839561    434.99124    -71.07529   -4139.7976 
   32100      -101321    -91022.58     250.0838    20724    226146.12    -44.70887    112.43857   -65.364848   -181.20033    434.17499    23.504953    22.159755   0.95010718    435.12509   -54.630356    -4163.818 
   32200   -101107.12   -90968.268    246.20885    20724    226328.01   -60.356703   -67.545495   -97.266257   -16.258356    434.16565    23.514657    22.168903   0.95477701    435.12042   -61.913388   -4205.0099 
   32300    -101240.9   -90965.069    249.53514    20724    226641.14    124.67436    184.28274    184.67456     5.065765     434.3694    23.525398     22.17903   0.85289933     435.2223   -86.473543   -4185.2763 
   32400   -101135.31   -91002.752    246.05586    20724    226320.74    101.96296   -12.414045    136.59035    181.71257    434.23665    23.512356    22.166735   0.91927555    435.15592   -57.619563   -4184.4474 
   32500    -101245.4   -90935.051     250.3735    20724     226429.7    71.963225    138.24345    63.252332    14.393896    434.31565    23.515876    22.170053   0.87977405    435.19543   -86.092468   -4222.0952 
   32600   -101209.11   -90903.999    250.24625    20724    226490.37    41.076662    166.69148   -85.567293    42.105801    434.52548    23.513348    22.167669   0.77486003    435.30034   -81.706219   -4255.5324 
   32700   -101161.99   -90911.424    248.92156    20724    226410.54   -11.051657    82.352391   -361.21093    245.70357    434.54485    23.508679    22.163268   0.76517553    435.31002   -62.829383   -4267.7693 
   32800    -101132.1   -90930.029    247.74395    20724    226409.31    13.197913      2.80001    24.477648     12.31608    434.34083    23.514136    22.168412   0.86718265    435.20802   -57.902239   -4254.1607 
   32900   -101218.38   -90907.523    250.38577    20724    226491.32    11.825809    14.916392   -44.859811    65.420847    434.45742    23.515238    22.169452   0.80889145    435.26631    -58.78371   -4274.0413 
   33000   -101125.65    -90874.67    248.93169    20724    226366.31   -93.589652   -210.59994    72.170382    -142.3394    434.44022    23.509213    22.163771   0.81748904    435.25771   -84.676266   -4279.6463 
   33100   -101176.35   -90888.176    249.83488    20724    226562.79   -21.937593   -146.83047    45.655886    35.361806    434.52299    23.517174    22.171277   0.77610518    435.29909   -60.708856   -4291.3274 
   33200   -101241.01   -90867.014    251.91886    20724    226450.37    -101.6837    -39.53384    -176.5865   -88.930763    434.50114    23.511929    22.166332   0.78702859    435.28817     -68.2092   -4305.7042 
   33300   -101143.12   -90866.793    249.54729    20724    226526.89   -112.95973   -132.45638    -3.848796   -202.57401    434.64397    23.512038    22.166434   0.71561409    435.35959   -49.571009   -4323.1883 
   33400   -101122.41   -90814.632    250.31087    20724    226610.36   -35.335967    92.323024    7.6302278   -205.96115    434.62241    23.516953    22.171068   0.72639517     435.3488   -63.223236   -4362.5995 
   33500   -101073.54   -90802.457    249.41984    20724    226550.93    32.681612    168.09948    67.119829   -137.17447    434.53847    23.516139    22.170301   0.76836306    435.30684   -58.839782   -4386.8189 
[...]
  491800   -96020.695   -84468.867    280.52107    20724    221075.78    90.776226   -90.012185    35.897203    326.44366    423.98833    23.517483    22.171568    6.0434346    430.03177    5640.0777   -23662.887 
  491900   -96010.709   -84509.582    279.28989    20724    221077.35    35.580238    147.53805   -226.21563     185.4183     424.1538    23.512979    22.167322     5.960698     430.1145    5635.8372    -23615.09 
  492000   -96081.999   -84520.616    280.75312    20724    221234.93   -98.995725   -60.914216    -230.9707    -5.102255     424.0787     23.52344    22.177184     5.998252    430.07695    5639.0697   -23596.552 
  492100   -95946.387   -84485.723    278.30729    20724    221017.94   -15.964991   -136.38522    134.39912   -45.908879    424.26086    23.506853    22.161547    5.9071713    430.16803    5640.7767   -23643.914 
  492200   -96035.337   -84482.646    280.54205    20724    221197.19    111.72865    154.03935     41.98589    139.16071    424.54883    23.508406    22.163011    5.7631839    430.31202    5626.1031   -23635.981 
  492300   -96088.808    -84478.49    281.94145    20724    221385.74   -10.535975    176.02882    -259.7898    52.153055    424.48633    23.520155    22.174087    5.7944359    430.28076    5640.3396    -23646.27 
  492400   -95970.975   -84494.569    278.68957    20724    220980.73   -3.9288167    -155.9716    177.58239   -33.397242     424.0032    23.512015    22.166413    6.0359996     430.0392    5610.6399   -23613.009 
  492500   -96003.709   -84485.364    279.70799    20724    220814.36    52.380704   -31.100863    185.29101     2.951968    424.28065    23.495477    22.150821    5.8972768    430.17792    5624.0277   -23646.511 
  492600   -96060.715   -84470.637    281.44993    20724    221158.98    57.025157     71.32081    -56.93065    156.68531    424.48703    23.508087     22.16271    5.7940872    430.28111     5633.258    -23661.94 
  492700    -95961.77   -84455.135    279.42365    20724    221048.39    54.143621    17.912693    50.341035    94.177134    424.21434    23.509761    22.164288    5.9304284    430.14477    5620.4183   -23666.433 
  492800   -96003.502   -84430.484    281.03566    20724    221119.64    13.031311   -44.659432      171.187   -87.433635    424.11067    23.516424    22.170569    5.9822669    430.09293    5641.9319   -23710.147 
  492900   -95982.104   -84439.129    280.30611    20724    221384.16    8.0107998   -92.254766    76.544026    39.743139    423.81416    23.538715    22.191585    6.1305182    429.94468    5643.2276   -23695.232 
  493000    -95940.67   -84444.784    279.16261    20724    221468.34    68.235107    51.655315   -71.547371    224.59738    423.85673    23.542008    22.194689    6.1092333    429.96597     5656.039   -23703.135 
  493100   -95975.718   -84488.131     278.9611    20724    221013.05   -63.392651   -59.293875   -238.08976    107.20569    423.94269    23.515412    22.169616    6.0662551    430.00894    5656.8153   -23671.392 
  493200   -96019.963   -84476.166    280.32607    20724    221095.38    56.463556    78.788996    152.28167   -61.680002    423.81564    23.523317    22.177068     6.129781    429.94542    5675.1354   -23709.369 
  493300    -96058.11   -84477.827    281.21208    20724    221085.29    89.278475    150.97168    189.58649   -72.722751    423.30027    23.537095    22.190058    6.3874642    429.68774     5669.497   -23702.544 
  493400   -96121.276   -84543.609    281.14854    20724    220965.79   -58.398709    -230.0205     146.9755   -92.151123    423.22749    23.532757    22.185968    6.4238572    429.65134    5675.3416   -23643.311 
  493500   -96117.876   -84522.286     281.5838    20724    220918.36   -87.082171   -18.811306   -126.17224   -116.26297    423.37105    23.526241    22.179825    6.3520764    429.72312    5672.9113   -23664.695 
  493600   -96058.284   -84501.593    280.63919    20724    220926.67    -42.25497   -189.26075    130.33307   -67.837227    423.12249    23.533593    22.186756    6.4763537    429.59885    5675.8381   -23690.883 
  493700    -96060.82   -84474.078    281.36894    20724    220828.78  -0.82600081    73.833426   -221.16386    144.85243    423.19437     23.52638    22.179956    6.4404137    429.63479    5670.8424   -23719.925 
  493800    -96099.82   -84522.263    281.14589    20724    220876.21   -73.922628   -118.36553    393.88423   -497.28659     423.2548    23.527227    22.180754    6.4101992      429.665    5666.7038   -23665.688 
  493900   -95958.538   -84528.981    277.55189    20724    220724.65    129.24681    147.04614   -47.246684    287.94097    422.88577    23.529413    22.182816    6.5947163    429.48048    5683.2341   -23688.726 
  494000   -95948.953   -84514.484    277.67119    20724    221043.34     69.67765    224.86256    23.917643   -39.747253    423.13777    23.539381    22.192213    6.4687151    429.60648    5698.7581   -23706.684 
  494100   -96096.785   -84569.691    279.92047    20724    220590.43    82.788008    210.93051   -23.498477    60.931993    423.18205    23.514022    22.168305    6.4465739    429.62863    5689.0789   -23663.372 
  494200   -96069.884   -84537.655    280.04515    20724    221056.54   -81.737142   -172.32931    81.482784    -154.3649    423.83159    23.520808    22.174703    6.1218028     429.9534     5688.785   -23673.521 
  494300   -95989.615   -84530.306    278.27439    20724     221272.2    82.604965    282.66005   -75.082296    40.237138    423.83326    23.532232    22.185473    6.1209714    429.95423    5693.1852   -23685.358 
  494400   -96051.336   -84515.113    280.14216    20724    221284.18   -34.670177    40.583995   -59.988075   -84.606452    423.72611    23.535844    22.188879    6.1745461    429.90065     5705.916   -23710.323 
  494500   -96157.017   -84482.208    283.50751    20724    221373.65    1.0367459    147.89704   -55.809589   -88.977217    423.81186     23.53822    22.191118    6.1316683    429.94353    5689.5344   -23725.741 
  494600    -96008.88    -84422.05    281.37107    20724     221098.7    24.390676    131.64875    225.70557   -284.18229    424.30311    23.509977    22.164491    5.8860462    430.18915    5671.0932   -23778.742 
  494700   -96036.295    -84444.69    281.48702    20724    221372.84   -3.0642732    -166.7613    115.32039    42.248087    424.11695     23.52971    22.183095    5.9791262    430.09607     5682.353   -23760.587 
  494800   -95982.592   -84474.315    279.46351    20724     221069.1     35.64051    121.59875    82.433066   -97.110289    423.81797    23.521854    22.175689    6.1286158    429.94658    5674.1517   -23735.593 
  494900   -95983.415    -84465.59    279.69536    20724     221034.3   -23.111514   -285.47411   -68.391286    284.53085    423.88493    23.518145    22.172192    6.0951333    429.98007    5671.8748   -23742.126 
  495000   -95908.612   -84505.779    276.90294    20724    220990.78    5.7099683    -8.423963   -34.628934    60.182802    423.73626    23.519955    22.173898    6.1694695    429.90573    5688.9942   -23722.729 
  495100   -96168.886   -84482.913    283.77865    20724    221094.37   -38.359144     272.9628   -198.45172   -189.58852    423.72728    23.525716     22.17933    6.1739624    429.90124    5675.3248   -23730.026 
  495200   -96041.906   -84548.773    279.09576    20724    220846.11     68.02595    101.82432    193.92102   -91.667494     423.7504    23.511863    22.166269    6.1623998     429.9128    5683.9208   -23686.289 
  495300   -96101.942   -84536.428    280.85345    20724    220947.62   -102.46723    48.406773   -98.338182   -257.47028     423.8834    23.513575    22.167884    6.0959023     429.9793    5682.6267   -23688.761 
  495400   -96163.803   -84581.133    281.27006    20724    221115.39   -67.440457   -103.71487   -172.71115    74.104642     424.1968     23.51381    22.168105    5.9391998      430.136    5684.8547   -23643.964 
  495500   -96003.171   -84497.269    279.40584    20724    221056.49   -55.048673   -36.061684   -192.98922     63.90488    424.11181    23.513033    22.167373    5.9816932    430.09351    5671.9868   -23719.777 
  495600   -96149.099   -84608.802    280.24109    20724    220905.68   -42.640826   -196.27845    64.831262    3.5247076    424.04419    23.506886    22.161578    6.0155053    430.05969    5694.6479   -23639.073 
  495700   -96251.932   -84602.856    282.88264    20724    221168.88   -46.412771    -18.58097    75.049453    -195.7068    424.05228    23.520661    22.174564     6.011461    430.06374    5685.7933   -23629.924 
  495800   -96044.363   -84586.867    278.23038    20724    221122.61    47.757003     229.5343    39.310151   -125.57345    424.45765    23.506968    22.161654    5.8087731    430.26643    5686.9362   -23651.653 
  495900   -96090.067    -84527.34    280.78577    20724    221450.18    121.30595    186.60112   0.40526099    176.91148    424.56362    23.521436    22.175295    5.7557908    430.31941    5685.2366   -23704.111 
  496000   -96054.812   -84531.769    279.82209    20724     221241.6   -36.337378   -25.016025   -214.19687    130.20076    424.45156     23.51346    22.167775    5.8118215    430.26338    5693.5324   -23707.966 
  496100   -96066.422   -84534.922    280.02744    20724    221450.22    21.987722    147.13749    185.23598    -266.4103    424.70871    23.517421    22.171509    5.6832455    430.39195    5703.8192   -23713.612 
  496200   -96043.993   -84554.468    279.00814    20724    221350.54   -46.434741   -82.359134   -33.332195   -23.612893    424.70162    23.512323    22.166704    5.6867888    430.38841    5716.8277   -23707.787 
  496300   -96032.436   -84526.141     279.4154    20724    221171.27   -53.063246   -2.9885564    33.480636   -189.68182    424.71262    23.502496    22.157439    5.6812885    430.39391    5693.5737   -23720.677 
  496400   -96133.775   -84518.225    282.06849    20724    221307.58   -167.73884   -315.15845    91.150178   -279.20825    424.41047    23.518104    22.172154    5.8323653    430.24283    5708.1345   -23734.689 
  496500   -96029.196   -84491.082    280.18807    20724    221099.59    7.8410363     337.1615    101.04835   -414.68674      424.385    23.507756    22.162397    5.8450978     430.2301    5697.6958   -23769.297 
  496600   -96053.075   -84513.886    280.21417    20724     220985.4   -32.526783   -129.41535    307.55033   -275.71533    424.25925    23.505167    22.159957    5.9079726    430.16723    5695.5065   -23748.995 
  496700   -96099.405   -84547.541    280.52196    20724    221212.34    20.020177    45.172172    -73.88349    88.771849    424.33232    23.515209    22.169424    5.8714399    430.20376    5698.0006   -23712.732 
  496800   -96076.081   -84497.103     281.1804    20724    221447.22   -66.151769   -94.791617   -239.77423    136.11054    424.77233      23.5155    22.169699    5.6514341    430.42377    5681.4941   -23736.679 
  496900   -95990.967   -84487.456    279.34776    20724    221485.21    2.1462327    -86.88656   -76.614586    169.93984     424.8906    23.514244    22.168514    5.5922977     430.4829    5681.4024   -23750.615 
  497000   -96054.229   -84489.095     280.8442    20724    221198.78   -183.47345   -304.89737   -129.49676   -116.02622    424.56337    23.508089    22.162711    5.7559141    430.31929    5688.6132   -23758.879 
  497100   -95927.161   -84473.105    278.14683    20724    221170.95    28.779501    3.0423801   -141.39799    224.69411    424.45582    23.509588    22.164124    5.8096911    430.26551    5691.4781   -23790.238 
  497200   -96306.358   -84530.823    285.95353    20724    221147.06   -23.923258    37.837697     57.76122   -167.36869    424.15853    23.516555    22.170693    5.9583355    430.11686    5705.4393   -23747.895 
  497300   -96167.199   -84494.924    283.44599    20724    221520.26   -72.367457    -134.3393   -60.786301   -21.976767    424.73632    23.520375    22.174295    5.6694408    430.40576    5682.0236    -23744.93 
  497400   -96021.965   -84473.624    280.43642    20724    221549.12    125.45119    21.628039    396.17497   -41.449434    424.96808    23.515492    22.169691    5.5535585    430.52164     5703.036   -23795.245 
  497500   -96108.976   -84500.153    281.90515    20724    221526.71   -27.978913   -127.15802   -149.95418    193.17546    424.86019    23.517288    22.171384    5.6075043     430.4677     5708.833   -23771.156 
  497600   -95868.346   -84492.692    276.24294    20724     221247.1    36.847882   -17.245256    22.324978    105.46392     424.8385    23.503042    22.157953    5.6183513    430.45685    5692.9065   -23774.881 
  497700   -96091.346   -84509.404    281.25237    20724    221463.99    132.82159    25.885861   -7.4791352    380.05805     424.9605    23.511184    22.165629    5.5573485    430.51785    5703.3388   -23769.869 
  497800   -95986.891   -84496.595    279.02686    20724    221421.17   -29.727048    40.235767    62.880676   -192.29759    425.03128    23.506953    22.161641    5.5219609    430.55324      5731.65    -23807.11 
  497900   -96093.703   -84487.601    281.83908    20724    221058.09  -0.21671817   -16.115625   -62.748398    78.213869    424.53282    23.501457    22.156459    5.7711912    430.30401    5719.2615   -23820.651 
  498000    -96124.61   -84474.426    282.90956    20724    221457.07   -75.877781   -42.514859   -153.12639   -31.992094    424.45494    23.524814    22.178479    5.8101301    430.26507    5726.5812   -23823.478 
  498100   -96037.502   -84475.015    280.77994    20724    221420.97    124.98083   -36.308364    142.84202    268.40884     424.1819    23.530466    22.183808    5.9466486    430.12855    5724.2844   -23834.478 
  498200   -95972.971   -84462.223    279.52354    20724    221355.01   -37.013935   -38.188835   -148.32407    75.471094    424.13581    23.528239    22.181708    5.9696954     430.1055    5732.1846   -23851.221 
  498300   -96078.274   -84488.419    281.44452    20724    221470.47    29.251008    328.67906   -44.798063   -196.12797    424.37895    23.527632    22.181136    5.8481273    430.22707    5742.9294   -23835.248 
  498400   -95929.474   -84439.256    279.02496    20724     221687.5    40.484878   -91.375869    170.69672    42.133786    424.71485    23.529846    22.183224    5.6801762    430.39502    5724.4847   -23860.559 
  498500    -96129.37   -84500.069    282.40242    20724    221674.25    105.04305   -142.35729    261.80798    195.67846    424.22407     23.54275    22.195389    5.9255664    430.14963    5726.9792   -23811.844 
  498600   -96117.841    -84528.53    281.43133    20724    221243.11    5.1020071    19.451356   -225.60915    221.46382     424.1843    23.520946    22.174833    5.9454501    430.12975    5737.1028    -23804.61 
  498700   -95911.608   -84485.553    277.46688    20724       221303    20.459331   -16.472534   -11.149886    89.000413    424.36386    23.519152    22.173142    5.8556711    430.21953     5718.409   -23828.697 
  498800     -96090.3   -84465.492    282.29332    20724    221274.22   -108.12375   -337.75831   -25.071883     38.45895    424.05436    23.526204     22.17979    6.0104183    430.06478    5708.8161   -23835.207 
  498900   -95959.118   -84497.724    278.32501    20724    221150.88    42.982757   0.91457812   -14.575393    142.60909    424.13291    23.517468    22.171554    5.9711441    430.10406    5720.6767   -23827.567 
  499000   -96000.721   -84483.898    279.67105    20724    221135.06   -105.36341    -42.87314    48.707809    -321.9249    424.47014    23.507284    22.161952    5.8025307    430.27267    5709.0143    -23824.76 
  499100   -96001.204    -84470.96    279.99694    20724    221421.84    -15.63489   -32.083923     66.81611   -81.636859    424.71112    23.515847    22.170026    5.6820405    430.39316    5728.9124   -23853.463 
  499200   -95968.583   -84483.428    278.90201    20724    221061.73   -25.277512    23.500067   -89.412094    -9.920508    424.05583    23.514864    22.169099    6.0096844    430.06552    5701.8528   -23828.734 
  499300   -95948.059   -84463.729      278.882    20724    221402.25    68.426211   -99.815997    154.68974    150.40489    423.94553     23.53603    22.189053    6.0648333    430.01037    5709.0755   -23850.034 
  499400   -95940.435   -84436.998    279.34597    20724    221303.85    1.2523735    248.52305   -101.32635   -143.43958    423.84816    23.533501    22.186669    6.1135198    429.96168    5702.9933   -23872.098 
  499500   -95982.384   -84453.436    279.96548    20724    221328.46   -16.030643    -47.40849   -13.990084    13.306644    424.13744    23.526782    22.180335     5.968881    430.10632    5713.4822   -23867.119 
  499600   -96116.969   -84460.337    283.06614    20724    221259.53   -77.369342    36.618829   -182.58383    -86.14302    424.08447    23.524588    22.178266    5.9953645    430.07984    5728.4245   -23876.729 
  499700   -95959.856   -84406.961      280.547    20724    221242.56    97.137883    60.452705    19.901993    211.05895    424.45667    23.513369     22.16769    5.8092657    430.26593    5711.1709   -23921.711 
  499800   -95991.294   -84391.302     281.6907    20724    221336.01   -41.209157   -145.88464   -172.11364    194.37081    424.20309    23.525363    22.178997    5.9360541    430.13915    5709.9789   -23928.001 
  499900   -96037.757   -84389.584    282.86073    20724    221087.84   -63.756451    50.380662   -27.613605   -214.03641    423.76147    23.524419    22.178107    6.1568666    429.91833    5687.8917   -23917.423 
  500000   -96153.259   -84427.486    284.74511    20724    221188.52   -139.35995   -343.94862    13.963012   -88.094253    424.16832    23.518487    22.172515     5.953441    430.12176    5711.3788   -23897.659 
Loop time of 70713.9 on 32 procs for 500000 steps with 20724 atoms

Performance: 1.222 ns/day, 19.643 hours/ns, 7.071 timesteps/s
97.4% CPU use with 32 MPI tasks x no OpenMP threads

MPI task timing breakdown:
Section |  min time  |  avg time  |  max time  |%varavg| %total
---------------------------------------------------------------
Pair    | 13116      | 14395      | 16730      | 832.6 | 20.36
Bond    | 0.80619    | 0.89996    | 1.4222     |  14.4 |  0.00
Kspace  | 13035      | 15375      | 16656      | 807.3 | 21.74
Neigh   | 10489      | 12596      | 14460      |1518.3 | 17.81
Comm    | 445.27     | 1812.2     | 4266.8     |2812.5 |  2.56
Output  | 7.4114     | 31.209     | 43.039     | 200.7 |  0.04
Modify  | 24946      | 26419      | 29368      | 855.8 | 37.36
Other   |            | 85.41      |            |       |  0.12

Nlocal:    647.625 ave 705 max 593 min
Histogram: 1 2 3 10 6 0 2 3 1 4
Nghost:    7170.91 ave 7902 max 6634 min
Histogram: 4 5 8 2 1 1 0 5 4 2
Neighs:    238189 ave 273749 max 210741 min
Histogram: 1 3 13 4 1 0 1 4 0 5
FullNghs:  476384 ave 546732 max 419664 min
Histogram: 1 3 11 6 1 0 0 5 1 4

Total # of neighbors = 15244301
Ave neighs/atom = 735.587
Ave special neighs/atom = 2
Neighbor list builds = 500000
Dangerous builds not checked
write_data production.R1
PPPM initialization ...
  extracting TIP4P info from pair style
WARNING: Using 12-bit tables for long-range coulomb (../kspace.cpp:316)
  G vector (1/distance) = 0.345883
  grid = 400 48 48
  stencil order = 5
  estimated absolute RMS force accuracy = 0.00040251
  estimated relative force accuracy = 1.21215e-06
  using double precision FFTs
  3d grid and FFT values/proc = 67260 38400
write_restart restartproduction.R1
PPPM initialization ...
  extracting TIP4P info from pair style
WARNING: Using 12-bit tables for long-range coulomb (../kspace.cpp:316)
  G vector (1/distance) = 0.345883
  grid = 400 48 48
  stencil order = 5
  estimated absolute RMS force accuracy = 0.00040251
  estimated relative force accuracy = 1.21215e-06
  using double precision FFTs
  3d grid and FFT values/proc = 67260 38400
Total wall time: 19:38:34
