LAMMPS (30 Jul 2016)
# Sets up LAMMPS simulation for transient melting of ice: TIP4P/Ice
# Ensure cold thermostats do not move
# Thinbox: 16x1x1
# Defects
# Order param l=2

#### setting MD parameters ####
units real
boundary p p p
atom_style full

# read ice box in restart file
#read_data ice-ih-restart.data
read_restart restart.state
  orthogonal box = (0.440637 0.0237773 0.0224166) to (435.635 23.5074 22.1621)
  32 by 1 by 1 MPI processor grid
  20736 atoms
  13824 bonds
  6912 angles
  2 = max # of 1-2 neighbors
  1 = max # of 1-3 neighbors
  1 = max # of 1-4 neighbors
  2 = max # of special neighbors

#replicate 16 boxes, 16x1x1


#### force field definition ####
pair_style      lj/cut/tip4p/long 2 1 1 1 0.1577 10.0
pair_modify	tail yes

kspace_style	pppm/tip4p 1.0e-6

bond_style	harmonic
angle_style	harmonic
dihedral_style	none
improper_style	none

bond_coeff	1 450.0 0.9572
angle_coeff	1 55.0 104.52


# reset pair coeff
pair_coeff	* * 0.0 0.0

#OO
pair_coeff	2 2 0.21085 3.1668
#OH
pair_coeff	* 1 0.0000 0.0000

neighbor        2.0 bin
neigh_modify    every 1 delay 1 check no

timestep	2.0
fix		constraints all shake 0.000001 20 0 b 1 a 1
  0 = # of size 2 clusters
  0 = # of size 3 clusters
  0 = # of size 4 clusters
  6912 = # of frozen angles

group water type 1 2
20736 atoms in group water

#*********** SIMULATION PARAMETER TO ADJUST ****************
#Box dimensions
variable lx equal lx
variable ly equal ly
variable lz equal lz

### Temperature of the hot and cold regions ####
variable thi equal 375
variable tlo equal 215
variable runpressure equal 0.986923
# Configuration equilibrated in density and temperature

# Define dx here

variable lx equal lx
variable ly equal ly
variable lz equal lz

variable xlo equal xlo
variable xhi equal xhi


variable dx equal 2.0

### ADD IN DEFECTS AT THE CENTRE OF THE HOT THERMOSTAT ###
variable x1 equal ${lx}/4.0
variable x1 equal 435.193926450292/4.0
variable y1 equal ${ly}/2.0
variable y1 equal 23.483645302662/2.0
variable z1 equal ${lz}/2.0
variable z1 equal 22.139666877036/2.0

region kill1 sphere ${x1} ${y1} ${z1} 3
region kill1 sphere 108.798481612573 ${y1} ${z1} 3
region kill1 sphere 108.798481612573 11.741822651331 ${z1} 3
region kill1 sphere 108.798481612573 11.741822651331 11.069833438518 3
delete_atoms region kill1 compress no bond yes mol yes
Deleted 15 atoms, new total = 20721
Deleted 10 bonds, new total = 13814
Deleted 5 angles, new total = 6907




variable thip equal ${thi}*2.0/3.0
variable thip equal 375*2.0/3.0
variable tlop equal ${tlo}*2.0/3.0
variable tlop equal 215*2.0/3.0
variable cbl equal ${lx}*3.0/4.0-${dx}
variable cbl equal 435.193926450292*3.0/4.0-${dx}
variable cbl equal 435.193926450292*3.0/4.0-2
variable cbh equal ${lx}*3.0/4.0+${dx}
variable cbh equal 435.193926450292*3.0/4.0+${dx}
variable cbh equal 435.193926450292*3.0/4.0+2
variable hbl equal ${lx}*1.0/4.0-${dx}
variable hbl equal 435.193926450292*1.0/4.0-${dx}
variable hbl equal 435.193926450292*1.0/4.0-2
variable hbh equal ${lx}*1.0/4.0+${dx}
variable hbh equal 435.193926450292*1.0/4.0+${dx}
variable hbh equal 435.193926450292*1.0/4.0+2


#***************************************************
## EQUILIBRATION PERIOD - to reach the steady state ###
#run 0

#reset the timestep to start your production run
reset_timestep 0

# define a group to perform averages
#group s1 type 1
###*** SYSTEM THERMOSTATTING: HOT and COLD regions ***###

fix NVE all nve
fix PRESS all press/berendsen aniso ${runpressure} ${runpressure} 500000 couple yz
fix PRESS all press/berendsen aniso 0.986923 ${runpressure} 500000 couple yz
fix PRESS all press/berendsen aniso 0.986923 0.986923 500000 couple yz


### Apply THERMOSTATS ###

#set up the "hot region" in the middle of the box
region hot block ${hbl} ${hbh} 0 ${ly} 0 ${lz} units box
region hot block 106.798481612573 ${hbh} 0 ${ly} 0 ${lz} units box
region hot block 106.798481612573 110.798481612573 0 ${ly} 0 ${lz} units box
region hot block 106.798481612573 110.798481612573 0 23.483645302662 0 ${lz} units box
region hot block 106.798481612573 110.798481612573 0 23.483645302662 0 22.139666877036 units box


#set up the "cold region" at the left end of the box
region cold block ${cbl} ${cbh} 0 ${ly} 0 ${lz} units box
region cold block 324.395444837719 ${cbh} 0 ${ly} 0 ${lz} units box
region cold block 324.395444837719 328.395444837719 0 ${ly} 0 ${lz} units box
region cold block 324.395444837719 328.395444837719 0 23.483645302662 0 ${lz} units box
region cold block 324.395444837719 328.395444837719 0 23.483645302662 0 22.139666877036 units box

#set up the "cold region" at the right end of the box
#region cold2 block ${h2bl} ${xhi} 0 ${ly} 0 ${lz} units box


#Cold regions  unification
#region cold union 2 cold1 cold2 units box

#Create group of cold molecules
####group cool_ice region cold
####group cool_ice include molecule

####compute cold_temp cool_ice temp
####fix cold_rescale water temp/rescale 1 ${tlo} ${tlo} 0.0001 1.0
####fix_modify cold_rescale temp cold_temp

#this calculates the temperature using only the atoms in the "hot region"
#compute hot_temp all temp/region hot

# calculate the temperature using only WATER in the "hot region"
compute hot_temp water temp/region hot

#this calculates the temperature using only WATER in the "cold region"
compute cold_temp water temp/region cold


#set up a basic velocity rescale for the hot region WATER with thip
fix hot_rescale water temp/rescale 1 ${thip} ${thip} 1.0 1.0
fix hot_rescale water temp/rescale 1 250 ${thip} 1.0 1.0
fix hot_rescale water temp/rescale 1 250 250 1.0 1.0
#change the thermostat to only act on the "hot region"
#this is done by passing it the "hot temp" compute that we defined above
fix_modify hot_rescale temp hot_temp

#set up a basic velocity rescale for the cold region
fix cold_rescale water temp/rescale 1 ${tlop} ${tlop} 1.0 1.0
fix cold_rescale water temp/rescale 1 143.333333333333 ${tlop} 1.0 1.0
fix cold_rescale water temp/rescale 1 143.333333333333 143.333333333333 1.0 1.0
#change the thermostat to only act on the "cold region"
#this is done by passing it the "cold temp" compute that we defined above
fix_modify cold_rescale temp cold_temp

### Ensure MOMENTUM CONSERVATION ###

#ensure that linear momentum is conserved despite the "thermostatting" by velocity rescaling
fix cons_mom all momentum 1 linear 1 1 1


thermo 100
thermo_style custom step pe etotal temp atoms vol press pxx pyy pzz lx ly lz xlo xhi f_cold_rescale f_hot_rescale

group ox type 2
6907 atoms in group ox
group hy type 1
13814 atoms in group hy
compute KE all ke/atom
variable TEMP atom c_KE*4186.8/(1.3806488*6.02214129)

compute cc1 all chunk/atom bin/1d x center 2 units box
#fix TPROFILE all ave/chunk 1 500 500 cc1 v_TEMP density/number file temp.dat
fix TPROFILEox ox ave/chunk 1 500 500 cc1 v_TEMP density/number file temp-ox.dat
fix TPROFILEhy hy ave/chunk 1 500 500 cc1 v_TEMP density/number file temp-hy.dat

compute orderparam ox orientorder/atom degrees 1 2 nnn 4 cutoff 3.5
compute cc2 ox chunk/atom bin/1d x center 2 units box
#fix ORDERPARAM all ave/chunk 1 500 500 cc2 c_orderparam[1] file order-param.dat
fix ORDERPARAM all ave/chunk 1 500 500 cc2 c_orderparam[1] file order-param.dat

restart 50000 config.restart

run 500000
PPPM initialization ...
  extracting TIP4P info from pair style
WARNING: Using 12-bit tables for long-range coulomb (../kspace.cpp:316)
  G vector (1/distance) = 0.345603
  grid = 405 48 48
  stencil order = 5
  estimated absolute RMS force accuracy = 0.000405895
  estimated relative force accuracy = 1.22234e-06
  using double precision FFTs
  3d grid and FFT values/proc = 67260 38880
Neighbor list info ...
  2 neighbor list requests
  update every 1 steps, delay 1 steps, check no
  max neighbors/atom: 2000, page size: 100000
  master list distance cutoff = 12.3154
  ghost atom cutoff = 12.3154
  binsize = 6.1577 -> bins = 71 4 4
Memory usage per processor = 12.763 Mbytes
Step PotEng TotEng Temp Atoms Volume Press Pxx Pyy Pzz Lx Ly Lz Xlo Xhi cold_res hot_resc 
       0   -103775.44   -94940.534    214.57518    20721    226266.06    128.16442    131.22194    240.03003    13.241303    435.19393    23.483645    22.139667   0.44063677    435.63456            0            0 
     100   -103625.44   -94650.161     217.9844    20721    226409.31   -85.481132   -173.73299   -107.84217    25.131764    435.35944    23.486612    22.142464   0.35788136    435.71732   -14.896319   -269.53163 
     200   -103664.65   -94637.524    219.24361    20721    226532.61    50.326291   -102.54367   -214.44502    467.96757    435.08037    23.500539    22.155594   0.49741362    435.57779   -16.906925   -284.31436 
     300   -103524.27   -94535.657     218.3083    20721    226409.17    -67.27854   -47.122421   -98.245724   -56.467476    435.23693     23.48991    22.145573   0.41913534    435.65606   -10.788712   -389.48832 
     400   -103431.27   -94456.794    217.96501    20721    226457.47    100.20334    193.77619   -82.333803    189.16763    435.18919    23.493704     22.14915   0.44300421     435.6322   -11.252851    -475.2426 
     500   -103500.44   -94433.341    220.21462    20721    226397.96   -57.699283   -105.96881   -229.95068    162.82164    435.22842    23.489558    22.145241   0.42338753    435.65181    5.1936537   -509.82627 
     600   -103528.71    -94387.56    222.01296    20721    226513.26    11.918134   -130.23419    12.372899     153.6157    435.23749    23.495294    22.150649   0.41885415    435.65635  -0.77183253   -552.01817 
     700   -103410.15   -94410.272    218.58204    20721    226610.89    40.712482    102.68647    29.129929   -9.6789542    435.34552    23.497441    22.152673   0.36483957    435.71036   -3.1483476    -525.4944 
     800   -103446.61   -94368.411    220.48423    20721    226490.93     68.34072    48.029217    326.13286   -169.13992    435.33733    23.491441    22.147017   0.36893477    435.70627   0.10884161   -575.77665 
     900   -103409.38   -94341.599    220.23109    20721    226449.15   -12.715476   -116.46646    77.960681   0.35935616     435.1588    23.494093    22.149516   0.45819835      435.617    10.787572   -610.68568 
    1000   -103429.74   -94303.968    221.63962    20721    226414.34   -54.289462   -197.37253   -48.945865    83.450009    435.20321    23.491088    22.146684   0.43599383    435.63921   -11.550095   -625.76253 
    1100   -103395.43   -94279.105    221.41023    20721     226516.3      5.50116   -143.80089   -14.642048    174.94642    435.07007    23.499972    22.155059   0.50256688    435.57263    2.9110171   -667.02315 
    1200   -103371.88   -94271.456    221.02392    20721    226319.49   -1.8169321    114.85792   -8.9657041   -111.34302    435.17843    23.486836    22.142675   0.44838554    435.62681    8.9313449   -685.59404 
    1300   -103447.04   -94260.089    223.12551    20721    226601.18    17.460004    35.129127    107.92573   -90.674847    435.29092    23.498411    22.153587   0.39213853    435.68306    25.520577   -707.81129 
    1400   -103352.42   -94177.106    222.84287    20721    226468.38    72.317948    30.171436    6.8808114     179.9016    435.22933    23.493186    22.148662   0.42293481    435.65227    30.038894   -802.99887 
    1500   -103367.22   -94153.675    223.77129    20721    226594.98    26.105432    123.43103    78.054645   -123.16938    435.53298    23.491559    22.147128   0.27111205    435.80409    29.238708   -820.36963 
    1600   -103347.67   -94145.104    223.50465    20721    226569.88    -41.71794    108.02825   -65.660406   -167.52166    435.45655    23.492319    22.147844    0.3093267    435.76587    25.104803   -821.76584 
    1700   -103316.36   -94131.632    223.07145    20721    226502.37    51.313193    96.820935   -53.873276    110.99192    435.20629    23.495571     22.15091   0.43445463    435.64075    43.993565   -862.72395 
    1800   -103295.38   -94072.223    224.00477    20721    226534.82   -66.446689   -7.3337858    104.93955   -296.94583    435.28716    23.495071    22.150439   0.39401784    435.68118     38.32717   -908.89304 
    1900   -103379.38    -94117.78    224.93841    20721    226522.44   -14.349505   -68.313627   -156.60502    181.87014    435.06738    23.500363    22.155428   0.50391094    435.57129    49.067802   -879.01985 
    2000   -103333.18   -94105.263    224.12029    20721    226525.69   -72.785442    101.26333   -181.77751   -137.84215    435.30764    23.494046    22.149472   0.38378134    435.69142    36.868831   -878.45002 
    2100   -103264.24   -94035.053    224.15127    20721    226559.88   -2.7765903   -20.590763    155.75495   -143.49395    435.54299    23.489469    22.145157   0.26610613    435.80909    19.379697   -934.13976 
    2200   -103317.12   -94074.574    224.47577    20721    226582.04    19.706425   -78.374942    160.44116   -22.946939    435.37757     23.49508    22.150447   0.34881295    435.72639    44.738846   -922.64638 
    2300   -103268.12   -93996.991    225.16998    20721    226513.58   -88.990026   -129.96335    41.844554   -178.85128     435.5005    23.488215    22.143975   0.28735138    435.78785    43.542864    -996.3538 
    2400   -103311.26    -93972.84    226.80424    20721    226582.41    38.900348   -141.34702    52.784323    205.26375    435.36554    23.495424    22.150772   0.35483011    435.72037    44.516798   -1026.7518 
    2500   -103200.32    -94013.64    223.11873    20721    226433.02    94.939156    119.63353   -83.173223    248.35716    435.20343    23.492051    22.147592   0.43588539    435.63931    71.235711   -1019.7393 
    2600   -103192.53   -93952.436    224.41617    20721    226689.75   -21.190703   -101.54992   -31.402122    69.379929    435.50151     23.49732    22.152559   0.28684545    435.78835    57.971236   -1055.1517 
    2700   -103235.74   -93949.865    225.52807    20721    226528.57   -18.063691     84.87358    75.623569   -214.68822    435.24222     23.49596    22.151277   0.41648924    435.65871    60.105324    -1067.068 
    2800   -103202.83   -93881.175    226.39706    20721    226561.41   -6.5179139    87.498323    114.78981   -221.84188    435.23934    23.497741    22.152956   0.41792818    435.65727    38.992226   -1112.9273 
    2900    -103084.9   -93839.245    224.55114    20721    226538.56     56.82477    212.72713    141.35044   -183.60325    435.25809     23.49605    22.151362   0.40855655    435.66664    25.790447    -1147.344 
    3000   -103104.37   -93839.633    225.01461    20721    226412.37    -16.74373    220.98411   -135.23564   -135.97966    435.33903    23.487321    22.143133    0.3680873    435.70711    42.613074    -1163.965 
    3100   -103100.23   -93822.732    225.32449    20721    226681.05    32.009056    59.415263    30.070116    6.5417903    435.41703    23.499148    22.154282   0.32908252    435.74612    29.688477   -1165.1201 
    3200   -103091.34   -93793.952    225.80755    20721    226720.71    24.997714    70.338975    155.21346    -150.5593    435.29684    23.504448    22.159279   0.38917773    435.68602    35.612484   -1197.5911 
    3300   -103081.47   -93777.311    225.97216    20721    226647.08    28.079786   -22.234206    154.05981   -47.586248    435.53126    23.494306    22.149717   0.27197201    435.80323    38.508777   -1221.9718 
    3400   -103175.99   -93748.034     228.9788    20721    226639.71   -63.184639    -17.45648   -187.73523    15.637793    435.51433     23.49438    22.149787   0.28043559    435.79476    48.197817   -1257.1291 
    3500   -103027.64   -93708.765    226.32962    20721    226629.13     37.58273    115.95631    131.85668    -135.0648    435.44297    23.495757    22.151085   0.31611514    435.75908    63.124853   -1315.6004 
    3600   -103090.58   -93628.506    229.80731    20721     226608.8     1.896647    134.46189    14.954879   -143.72683     435.3264    23.497848    22.153057   0.37439977     435.7008    34.709979   -1368.0616 
    3700   -103005.86   -93662.664    226.92012    20721    226752.64   -1.9177447    72.607098   -95.104576    16.744244    435.55647    23.499096    22.154234   0.25936645    435.81583    57.163436   -1351.7101 
    3800   -103026.09   -93679.675    226.99842    20721    226655.61    31.195509    28.366901    75.816445    -10.59682    435.55489     23.49411    22.149533   0.26015483    435.81505    49.563068    -1332.164 
    3900   -103050.04   -93649.662    228.30889    20721    226691.63    31.320672    144.07622   -40.034034   -10.080174    435.50526    23.497316    22.152555   0.28496903    435.79023    60.279537   -1374.3537 
    4000   -103034.76    -93637.75    228.22711    20721    226561.75   -19.957415    -56.67023    6.1488518   -9.3508684    435.42216    23.492825    22.148321   0.32651788    435.74868    67.071537   -1396.3923 
    4100   -103009.57   -93614.726    228.17462    20721    226533.25      19.6942    145.10197   -98.943883    12.924508    435.43603    23.490973    22.146575   0.31958368    435.75562    60.168141   -1413.3399 
    4200   -103038.39   -93627.821    228.55646    20721    226603.84    9.5517478   -70.986734    41.591071    58.050906    435.46983    23.493722    22.149166   0.30268593    435.77251    65.033655   -1405.9397 
    4300   -103091.34   -93636.461    229.63273    20721    226805.74   -85.842819     30.25107   -269.46776    -18.31177    435.61446    23.500283    22.155352   0.23036839    435.84483    61.167847     -1384.53 
    4400   -102992.95    -93615.56    227.75065    20721       226540   -38.904999   -66.698997   -193.42192    143.40592     435.4291    23.491511    22.147082   0.32305231    435.75215    57.119162   -1410.6033 
    4500   -103040.07   -93616.011    228.88404    20721    226648.59   -39.442299   -30.362323    89.483145   -177.44772    435.38733    23.498267    22.153452   0.34393708    435.73126    55.062727   -1406.4067 
    4600   -103002.17   -93608.328    228.15034    20721     226580.9    71.855113    10.092117   -12.929299    218.40252    435.42761    23.493671    22.149119   0.32379702     435.7514    62.032665   -1427.7131 
    4700   -102962.19   -93585.317    227.73817    20721    226601.22    20.613134    286.07514   -141.34935   -82.886387    435.31694    23.497711    22.152927   0.37912971    435.69607    57.002228   -1444.7026 
    4800   -103051.35   -93596.267    229.63753    20721    226589.76    -18.09085    19.783667    81.814472   -155.87069    435.36026    23.495948    22.151265   0.35746972    435.71773    57.206414   -1433.6407 
    4900   -102903.35   -93547.669    227.22339    20721    226552.42   -23.378341   -17.098027    121.57608   -174.61307    435.28828    23.495954    22.151271   0.39345788    435.68174     51.63239   -1476.9193 
    5000   -102948.93   -93542.693    228.45138    20721    226468.92    18.983297    140.22025    112.70912   -195.97948    435.39367     23.48878    22.144508   0.34076354    435.73444    63.124067   -1499.0306 
    5100    -102929.5   -93544.929    227.92497    20721    226601.45   -26.960482  -0.95823257    1.6192921   -81.542504    435.45714    23.493939    22.149372    0.3090283    435.76617    62.945043   -1491.0306 
    5200    -103021.1   -93527.683     230.5687    20721    226467.78   -40.589913    -138.9005   -193.49842    210.62919    435.21538    23.493532    22.148988   0.42991139    435.64529    67.422793   -1518.8294 
    5300   -102886.55   -93514.676    227.61661    20721    226609.22    12.238292   -27.832284    66.220717   -1.6735581    435.32025    23.498036    22.153234   0.37747287    435.69773    78.502267     -1541.57 
    5400    -102975.8   -93521.961     229.6073    20721       226415    4.0566819    18.548254   -33.577529     27.19932    435.24705    23.489939    22.145601    0.4140753    435.66112    73.711839   -1536.6843 
    5500   -102973.06   -93505.698    229.93577    20721    226544.95   -4.1502114   -99.556707    44.141505    42.964568    435.11815     23.50016    22.155236   0.47852308    435.59668    61.961684   -1538.7976 
    5600   -102906.34   -93463.867    229.33132    20721    226498.86   -58.627077   -17.565496   -16.086053   -142.22968    434.98582    23.501343    22.156351    0.5446902    435.53051    70.623121   -1587.2264 
    5700   -102977.75     -93465.7    231.02108    20721    226665.57   -22.083908   -26.937826   -184.70344    145.38954    435.39998    23.498806     22.15396   0.33760867    435.73759    84.944685   -1598.0045 
    5800   -102977.66   -93417.032    232.20111    20721    226930.11   -25.516822   -219.78044   -53.984174    197.21415    435.44251    23.511366    22.165801   0.31634508    435.75885    94.559911    -1649.546 
    5900   -102803.21    -93388.18    228.66488    20721    226730.45    47.810856   -19.995194    42.363941    121.06382    435.40323    23.502081    22.157047   0.33598481    435.73922    84.171692   -1679.9404 
    6000   -103006.98   -93478.914    231.41017    20721     226769.7   -91.870609   -45.436933   -13.394667   -216.78023    435.53797    23.500479    22.155537   0.26861356    435.80659    103.02936   -1601.4121 
    6100   -102899.79   -93426.193    230.08724    20721    226596.55    41.203642    50.455075   -67.169124    140.32497    435.49453    23.492677    22.148182   0.29033703    435.78486    81.096183   -1645.2315 
    6200   -102910.13   -93422.965    230.41676    20721    226710.06    20.600383   -40.172046    166.12506   -64.151866    435.33576    23.502845    22.157768    0.3697177    435.70548    91.811424   -1654.5277 
    6300   -102962.91   -93399.516     232.2682    20721    226680.19    80.342033    -4.194638    300.80345   -55.582713    435.43652    23.498578    22.153745   0.31934166    435.75586    92.885417   -1685.8087 
    6400   -102878.64   -93423.648     229.6355    20721    226528.45    29.868323    65.753475    302.82236   -278.97087    435.24741    23.495814    22.151139   0.41389663     435.6613    97.883618    -1667.743 
    6500   -102917.04   -93362.233    232.05963    20721    226665.14   -67.764959   -32.751019    114.60786   -285.15172    435.43107    23.497944    22.153148   0.32206495    435.75314     88.21416   -1712.7415 
    6600   -102823.22    -93326.12    230.65812    20721    226727.02   -21.405387   -102.62222    84.512274   -46.106212    435.45399    23.500533    22.155588   0.31060748    435.76459    69.255333   -1728.3283 
    6700   -102754.14   -93291.999    229.80894    20721    226835.17    67.546945    84.046594    71.984238    46.610002    435.43257    23.506716    22.161417   0.32131482    435.75389    57.897398   -1754.4003 
    6800   -102718.75   -93257.454     229.7884    20721    226736.87    39.117296    97.931099    138.83398   -119.41319    435.28579    23.505584     22.16035   0.39470693    435.68049     57.44092   -1789.7176 
    6900   -102727.98   -93217.966    230.97172    20721    226579.59   -21.959604    90.722688   -7.1995386   -149.40196    435.18212    23.500228    22.155301    0.4465384    435.62866    51.460151   -1826.5871 
    7000   -102731.55   -93169.816    232.22777    20721    226827.71    49.917476    70.267032    52.660858    26.824538    435.68715    23.499461    22.154577   0.19402453    435.88118    27.640141   -1848.8867 
    7100   -102801.08   -93209.384    232.95566    20721    226650.08   -26.693933   -22.889255    -83.00975    25.817207    435.27893     23.50127    22.156283   0.39813251    435.67707    48.555258   -1834.5302 
    7200   -102670.85   -93152.451    231.17541    20721     226710.3    16.229005     125.3723     11.78864   -88.473922    435.28801    23.504147    22.158995   0.39359712     435.6816    42.150481   -1883.6729 
    7300   -102697.56   -93128.033    232.41723    20721    226677.42   -13.382189   -67.149112    11.303836    15.698708    435.40043    23.499408    22.154527   0.33738269    435.73782    41.991529    -1910.503 
    7400   -102657.32   -93176.582    230.26071    20721    226730.78    80.653818   -6.7752853    300.65871   -51.921969    435.51122    23.499184    22.154316   0.28199158    435.79321    50.795352   -1874.2054 
    7500    -102739.5   -93201.852    231.64281    20721    226642.74   -9.1338527    165.54274   -106.64397   -86.300331    435.45383    23.496169    22.151474   0.31068422    435.76452    61.716697   -1859.4623 
    7600   -102731.02   -93226.309    230.84285    20721    226576.97     32.50001   -53.756863    188.98646   -37.729567    435.26043    23.497979     22.15318   0.40738642    435.66781    81.908314   -1857.8245 
    7700   -102725.35   -93185.872    231.68729    20721    226695.05    22.300904    76.743594    155.98195   -165.82283    435.45937    23.498731    22.153889   0.30791392    435.76729    64.274778   -1879.3849 
    7800   -102720.81   -93160.466    232.19401    20721    226854.94    12.212341   -6.8778288   -9.9759798     53.49083    435.48658    23.506282    22.161008   0.29430909    435.78089    76.040483   -1911.5027 
    7900   -102797.54   -93182.901    233.51291    20721    226636.05   0.30431812   -40.751081    -84.45772    126.12176    435.43123    23.496432    22.151722   0.32198381    435.75322     73.36771   -1893.9415 
    8000   -102693.63   -93185.207     230.9332    20721    226805.74   -46.379982    -173.3462   -28.824118    63.030374    435.47373     23.50408    22.158932   0.30073581    435.77446    90.019473    -1902.025 
    8100   -102635.28   -93113.539    231.25649    20721    226713.55    29.197215     221.0293   -151.34092     17.90327    435.29298    23.504181    22.159027   0.39111135    435.68409    78.394498   -1969.4273 
    8200   -102662.18   -93127.474    231.57143    20721     226794.6   -12.530807   -164.89241    127.01021   0.28977977    435.31235    23.507859    22.162495   0.38142546    435.69377    85.877257   -1957.5483 
    8300   -102774.46   -93093.408    235.12586    20721    226684.96   -50.178654   -28.363235    168.15412   -290.32685    435.27393    23.503213    22.158115   0.40063467    435.67457    81.313414   -1991.0505 
    8400   -102713.64   -93128.018    232.80811    20721    226548.65    66.519455    39.453891    33.848486    126.25599    435.14618    23.499595    22.154703   0.46451109    435.61069    88.968815   -1974.7866 
    8500   -102719.42    -93061.91    234.55391    20721    226732.47   -22.050726   -7.4310119   -164.25405    105.53288    435.41665    23.501823    22.156804   0.32927261    435.74593    80.834633   -2023.9523 
    8600   -102635.16   -93067.467    232.37262    20721    226883.19    49.872061   -15.577918     -96.9317     262.1258    435.43085     23.50925    22.163806   0.32217387    435.75303    74.703532    -2013.284 
    8700   -102662.21   -93019.566    234.19304    20721    226724.32   -17.812312   -172.37645   -250.71096    369.65047    435.30771    23.504342    22.159179   0.38374404    435.69146    80.282784   -2068.6263 
    8800   -102710.71   -93039.163    234.89498    20721    226787.08   0.22217324   -91.819167    -3.278708    95.764394    435.28247    23.508276    22.162888   0.39636422    435.67884    74.045997   -2043.1831 
    8900   -102694.46   -93027.914    234.77355    20721    226712.52    7.5632248    61.168569    30.653072   -69.131966    435.42069     23.50068    22.155727     0.327254    435.74795    73.833728    -2055.617 
    9000   -102603.08   -93015.916    232.84543    20721    226880.07    0.2876841   -98.896205    131.53007   -31.770809    435.53709    23.506221    22.160951   0.26905332    435.80615    86.193199   -2075.5549 
    9100   -102642.01   -92996.362    234.26585    20721    226825.14    28.244155    119.19158    72.047575   -106.50668    435.51416    23.503994    22.158851   0.28051894    435.79468    87.143425   -2101.2162 
    9200   -102539.61   -92953.023     232.8314    20721    226691.85    54.909184    159.63763     34.26946   -29.179535    435.35306    23.501434    22.156438    0.3610697    435.71413    70.984973   -2135.0264 
    9300   -102557.11   -92944.811    233.45604    20721    226771.72    38.484069    33.446818   -21.072632    103.07802    435.47098    23.502391     22.15734   0.30211245    435.77309     88.10168   -2158.2932 
    9400   -102517.08   -92931.427    232.80875    20721    226768.27    34.491819    129.66526   -192.08024    165.89044     435.4012    23.504096    22.158947   0.33699915     435.7382    63.782825   -2148.6527 
    9500   -102594.12   -92952.755    234.16198    20721    226814.71    1.1355118   -91.755787   -49.003125    144.16545    435.55594    23.502326    22.157279   0.25962987    435.81557    73.905645   -2135.1307 
    9600   -102597.27   -92913.687    235.18721    20721    226588.65   -82.537211   -198.58095    259.83106   -308.86175    435.48512    23.492521    22.148035   0.29504244    435.78016    60.837082   -2165.9081 
    9700      -102578   -92880.206    235.53237    20721    226820.61    -36.94871    -107.0589    159.06877   -162.85599    435.48994    23.504413    22.159246   0.29262812    435.78257    53.246835   -2187.1445 
    9800   -102571.35   -92873.003    235.54574    20721    226650.47   -79.181411     117.7496   -185.93575   -169.35808    435.50414    23.495213    22.150573   0.28553106    435.78967    53.855317   -2199.4391 
    9900   -102534.37   -92887.002    234.30774    20721    226792.73    29.717138   -149.72008   -14.264421    253.13592    435.55571    23.501194    22.156211   0.25974422    435.81546    58.796618   -2191.8476 
   10000   -102394.07   -92835.544    232.14996    20721    226612.21    59.531191    103.16617    61.953168    13.474232    435.40285    23.495962    22.151279   0.33617323    435.73903    30.429565   -2220.2169 
   10100   -102563.03    -92856.45    235.74568    20721    226756.42     -43.0917   -175.99962   -178.79566    225.52018    435.46601    23.501733    22.156719    0.3045935    435.77061    63.948737   -2226.6419 
   10200   -102418.33   -92839.222    232.64991    20721    226635.76    51.508332    38.589413    177.52742    -61.59184    435.46709     23.49545    22.150796   0.30405573    435.77114    55.912792   -2243.6227 
   10300   -102443.75   -92861.062    232.73686    20721    226659.17    37.165204   -44.545658   -68.071076    224.11235    435.09271     23.50677    22.161469   0.49124741    435.58395    76.262701   -2242.2707 
   10400   -102570.75   -92844.892     236.2139    20721    226660.77    39.307735    55.457604    -85.96674    148.43234    435.24425     23.50276    22.157688   0.41547536    435.65972    90.634312   -2275.3495 
   10500   -102443.38   -92786.658    234.53483    20721    226537.23    11.067124   -140.14377    73.570566    99.774573     435.2254    23.496863    22.152128   0.42489952     435.6503    87.708995   -2332.5324 
   10600   -102557.16   -92801.764    236.93144    20721    226541.03    19.045286    162.27954   -208.04986    102.90618    435.05567    23.501643    22.156635   0.50976557    435.56543    103.65434   -2336.2521 
   10700    -102411.9   -92783.954    233.83591    20721     226653.7    -4.237131   -53.671937    229.06635   -188.10581    434.98471    23.509404    22.163952   0.54524312    435.52996      63.8676   -2308.7724 
   10800   -102435.62    -92773.09    234.67591    20721    226691.93   0.91199387    128.29606    8.9499969   -134.51008    435.40289    23.500093    22.155174     0.336157    435.73904    63.007775   -2321.3334 
   10900   -102448.59   -92801.311    234.30544    20721     226596.6    81.142356     212.5274    11.911928    18.987738    435.22681    23.499904    22.154995   0.42419716      435.651     92.93214   -2330.3666 
   11000   -102368.43   -92792.778     232.5658    20721    226438.18    17.738723   -128.47563   -167.39363    349.08543    435.27408    23.490413    22.146047   0.40055984    435.67464    75.295001   -2321.2165 
   11100   -102434.22   -92732.537    235.62675    20721    226559.49   -2.4020358   -47.467893   -164.19698    204.45876    435.06227    23.502422    22.157369   0.50646303    435.56874    67.401171   -2371.8768 
   11200   -102435.09   -92751.538    235.18646    20721    226497.05   -8.1680809    21.277442   -102.25799    56.476309    435.01364    23.500497    22.155555     0.530779    435.54442    84.608878   -2373.6867 
   11300   -102471.53   -92727.757    236.64903    20721    226563.94   -24.730016   -33.559649     82.45751   -123.08791      435.031    23.503498    22.158384   0.52209869     435.5531    77.970701   -2387.3218 
   11400   -102427.39   -92741.623    235.24018    20721    226378.43   -45.734852   -78.745691    126.65913     -185.118    434.91047    23.497129    22.152379   0.58236381    435.49284     100.7831   -2400.9039 
   11500   -102284.89   -92706.937    232.62176    20721    226536.89    111.60113    98.611318    122.54449    113.64759     434.7239    23.510395    22.164886   0.67564772    435.39955    97.300617   -2434.9742 
   11600   -102234.39   -92673.188    232.21488    20721    226348.21    31.470778    102.77014   -23.640423    15.282616    434.72703    23.500517    22.155573   0.67408742    435.40111    73.227281   -2445.9376 
   11700   -102357.36   -92679.592    235.04603    20721    226618.45    22.287831   -161.82051     -174.335    403.01901    434.92784    23.509113    22.163677   0.57368127    435.50152    60.447932    -2423.442 
   11800   -102311.04   -92658.852    234.42486    20721    226396.75   -6.6859549    105.48713   -410.21105    284.66606    434.87678     23.49899    22.154134   0.59920867    435.47599    52.947563     -2440.48 
   11900   -102393.59   -92630.445    237.11957    20721    226367.95   -70.090697   -114.95393    46.066806   -141.38497    434.78248    23.500043    22.155126   0.64635868    435.42884    36.378146   -2451.7604 
   12000   -102370.36   -92624.004    236.71186    20721    226394.87   -45.070357    82.973256   -72.823391   -145.36093    434.83107    23.500128    22.155206   0.62206611    435.45313    31.105164   -2455.0176 
   12100   -102338.41   -92600.738    236.50094    20721    226418.04    6.7466145   -17.324274   -39.501453    77.065571     434.7543    23.503405    22.158296   0.66045071    435.41475    34.010944   -2483.5674 
   12200   -102317.57   -92574.945    236.62124    20721    226371.02   -58.137201   -176.32602   -52.321434    54.235851    434.67833    23.503018    22.157931   0.69843472    435.37677    10.346089   -2485.2513 
   12300   -102310.95   -92580.169    236.33363    20721    226417.06   -35.225334   -39.412017    33.707209   -99.971195    434.80287    23.502041     22.15701   0.63616746    435.43903    9.9165246   -2479.7775 
   12400    -102236.6   -92562.874    234.94795    20721     226494.3    44.057184    115.04918    12.046368    5.0760026    434.79261    23.506327    22.161051   0.64129726     435.4339    28.033383   -2516.6336 
   12500   -102225.72   -92510.083     235.9658    20721    226398.71 -0.051870538   -123.48739    238.37085   -115.03907    434.61834    23.506078    22.160815   0.72842961    435.34677    35.517192   -2579.6915 
   12600   -102295.03   -92492.604    238.07359    20721    226395.98   -59.818847   -34.492415   -12.296456   -132.66767    434.53666    23.508145    22.162764    0.7692703    435.30593    24.976858   -2584.3396 
   12700    -102149.9   -92470.435    235.08734    20721    226322.35    115.03349    138.87829     313.5102   -107.28801    434.61287    23.502261    22.157217   0.73116396    435.34404    51.763993   -2644.8861 
   12800   -102269.44   -92475.319    237.87186    20721    226287.08  -0.91809651   -68.634826    134.27252   -68.391985    434.56327    23.501771    22.156755   0.75596543    435.31923    62.315557   -2649.1233 
   12900   -102192.14   -92444.576    236.74122    20721    226382.35    99.302486    238.26912    169.28299   -109.64465    434.62933    23.504931    22.159734    0.7229354    435.35226    44.980476    -2665.544 
   13000   -102112.59    -92452.33     234.6208    20721     226377.5    77.300734    139.36862   -147.20088    239.73446     434.4988     23.50821    22.162825   0.78819906      435.287    26.556958    -2636.365 
   13100   -102077.86   -92398.727    235.07925    20721    226347.94    7.9929693    6.8376785   -174.81797     191.9592    434.55121    23.505257    22.160042   0.76199359    435.31321    24.710382   -2688.5445 
   13200   -102149.99   -92403.146    236.72368    20721       226446   -12.699467   -57.856226   -80.903733    100.66156    434.60402     23.50892    22.163495   0.73558908    435.33961   -1.9073168   -2656.5898 
   13300   -102112.97   -92404.759    235.78529    20721    226375.47  -0.61848088   -121.80247    38.650071    81.296959    434.51244    23.507735    22.162378   0.78137768    435.29382    28.657148   -2687.8996 
   13400   -102168.74   -92410.188    237.00801    20721    226434.73     -30.1625   -20.644816    52.142286   -121.98497    434.44173    23.512725    22.167082   0.81673389    435.25847     32.26956   -2684.4544 
   13500   -102082.68   -92386.973    235.48166    20721    226283.83   -7.5654066   -201.69146    240.26474   -61.269496    434.46447    23.504274    22.159115   0.80536439    435.26984     17.78197   -2697.8058 
   13600    -102037.4   -92336.182    235.61552    20721    226252.36    85.440814    103.30013    137.10912    15.913188    434.22843    23.509026    22.163595   0.92338507    435.15181    13.812071   -2751.9687 
   13700   -102125.11   -92352.933    237.33901    20721    226308.33     7.935484    14.916496     206.7452   -197.85524    434.38767    23.507624    22.162274   0.84376392    435.23144     21.38979   -2740.6776 
   13800   -102130.26   -92336.548    237.86188    20721    226199.08    1.7922045    44.604756   -225.25596    186.02782    434.23451    23.506094     22.16083   0.92034686    435.15485    10.809936   -2748.8421 
   13900   -102168.01   -92352.617    238.38854    20721    226144.45    50.099077    169.59261    62.636774   -81.932148    434.27032    23.502286    22.157241   0.90244004    435.17276    10.599269   -2737.9823 
   14000   -102186.27   -92368.067    238.45686    20721    226164.04   -51.555355   -198.19667    9.4961071    34.034497    434.38314    23.500251    22.155323    0.8460277    435.22917    14.108455   -2719.7915 
   14100   -102040.83   -92329.786    235.85422    20721    226091.85    11.447399   -181.04757    226.60843   -11.218661    434.02986    23.506061      22.1608      1.02267    435.05253  -0.72942149   -2749.0093 
   14200   -102155.94   -92356.901    237.99145    20721    226227.81   -38.400994   -20.710897   -93.654109   -0.8379765    434.16166    23.509559    22.164097   0.95676837    435.11843    2.1810561   -2720.0796 
   14300   -102028.04   -92307.403    236.08723    20721    226195.72    47.486716    10.602851    304.73745   -172.88015    434.26284    23.505152    22.159943   0.90617885    435.16902   -12.271831   -2760.2801 
   14400   -102012.19   -92306.389    235.72693    20721    226325.46    81.543184    210.61287    237.26344   -203.24675    434.55082    23.504101    22.158951   0.76218987    435.31301   -8.5432174   -2765.6573 
   14500   -101944.38   -92280.156    234.71707    20721    226302.15    89.980382   -62.201275    168.49952     163.6429    434.27824    23.510265    22.164763   0.89848051    435.17672   -31.061467   -2770.3531 
   14600   -101996.43   -92277.258    236.05169    20721    226347.19    54.483973    113.13346   -123.45765    173.77611    434.40693    23.509122    22.163685   0.83413582    435.24106   -5.6825849   -2796.2088 
   14700   -102101.13   -92288.857    238.31272    20721    226266.59    44.996856    193.62823   -99.097153    40.459486    434.61073    23.499424    22.154542   0.73223651    435.34296   -11.573127   -2784.2149 
   14800   -102135.36   -92263.625    239.75684    20721    226445.92    12.059332    56.165284   -161.31044    141.32315    434.78334    23.504067     22.15892   0.64593011    435.42927   -1.1154888   -2812.4125 
   14900   -102117.37   -92265.428    239.27618    20721    226358.28   -14.672939   0.85835533   -62.349731    17.472558    434.78517    23.499469    22.154585   0.64501435    435.43019   -7.6597278   -2808.1147 
   15000   -102023.82   -92241.075    237.59564    20721    226389.58    50.635063    65.293955     82.20168    4.4095525    434.68142    23.503898     22.15876   0.69688852    435.37831      10.5728   -2852.1775 
   15100   -102033.88   -92286.428    236.73838    20721    226240.02    61.729411    31.930922    107.05142    46.205887    434.64736    23.497054    22.152308   0.71392158    435.36128     42.08158   -2844.7184 
   15200   -102088.07   -92304.288    237.62088    20721    226039.46   -9.3245699    118.96585   -203.40248     56.46292    434.50907    23.490373     22.14601   0.78306367    435.29214    75.027389   -2863.8394 
   15300   -101973.23   -92251.192     236.1211    20721    226027.72   -50.256051   -8.1052863   -65.063477   -77.599388    434.52309    23.489385    22.145078   0.77605406    435.29915    47.181665   -2886.3508 
   15400   -102075.67   -92221.092    239.34023    20721    226152.13    10.697642   -211.19855   -69.682799    312.97428    434.21094    23.504292    22.159132   0.93213168    435.14307    34.074544   -2904.6308 
   15500   -102027.86   -92246.312    237.56663    20721    226086.45    22.507627    127.92567   -80.018472    19.615684    434.26185    23.499501    22.154615   0.90667685    435.16852    36.228095   -2885.2084 
   15600   -101935.52   -92208.636      236.239    20721    226003.48   -53.350515    41.913965    -176.7651   -25.200406    434.09556    23.499688    22.154792   0.98982038    435.08538    32.199237   -2917.7938 
   15700   -102011.98   -92207.189    238.13097    20721     226117.4    26.762991   -18.473453    77.354984    21.407441    434.18514    23.503186    22.158089   0.94503241    435.13017    37.761168   -2926.4075 
   15800   -101929.06   -92183.068    236.70299    20721    226099.83    95.941844    187.47451     116.9383   -16.587275    433.89887    23.510024    22.164536    1.0881656    434.98703     23.00784    -2940.403 
   15900   -101950.98   -92140.219    238.27602    20721    226133.21   -26.777093    72.291725   -29.409593   -123.21341    434.20683     23.50342     22.15831   0.93418379    435.14102    21.832442   -2976.1125 
   16000   -101857.39   -92081.482    237.42947    20721    226309.22    32.444772     8.916939   -149.45765    237.87502    434.40946    23.507081    22.161761   0.83286956    435.24233    42.238839   -3055.6085 
   16100   -101963.95   -92061.812    240.49541    20721    226347.68   -64.803316    -45.37265    31.413537   -180.45083    434.61561    23.503502    22.158387   0.72979672     435.3454    45.773961   -3075.4616 
   16200    -101872.8   -92095.916    237.45336    20721    226306.36    80.486619    122.51956    188.05443   -69.114126    434.64184    23.500648    22.155696   0.71668105    435.35852    30.224934   -3032.1294 
   16300    -101932.3   -92093.697    238.95234    20721    226409.99    48.280292    34.878434   -72.084812    182.04725     434.5057     23.50971     22.16424   0.78475041    435.29045    26.592202   -3027.6236 
   16400   -101900.36   -92066.311    238.84158    20721    226375.46   -22.390243   -166.73452   -13.278689    112.84248    434.55034    23.506709    22.161411   0.76242888    435.31277    37.580086   -3065.6739 
   16500    -101901.5   -92058.513    239.05879    20721    226460.95    32.021903    23.052905   -21.227374    94.240178    434.76429    23.505362    22.160141   0.65545609    435.41974    45.634268     -3084.47 
   16600   -101868.23   -92035.068    238.82021    20721    226422.15   -51.176157   -134.54512    16.124243   -35.107597    434.34906     23.51458    22.168831   0.86307039    435.21213    37.485822   -3095.1122 
   16700   -101855.43   -92019.422     238.8892    20721    226389.28    26.856933    147.51882   -121.21727    54.269255    434.35443    23.512728    22.167085   0.86038682    435.21481    36.126494   -3115.1756 
   16800    -101824.5   -92017.808    238.17711    20721    226358.63   -48.604372   -91.328293    43.292589    -97.77741    434.31782    23.512127    22.166519   0.87868962    435.19651      57.2065   -3138.0886 
   16900   -101817.41   -91984.197    238.82124    20721    226403.16    109.46392    129.16626    -68.40597    267.63146    434.69475    23.504242    22.159085   0.69022269    435.38498    58.548929   -3178.7732 
   17000   -101852.95   -92008.618    239.09141    20721    226225.49    45.110456    77.856669    68.111145   -10.636445    434.35777     23.50413    22.158979   0.85871309    435.21649    48.138738   -3147.2036 
   17100   -101757.87   -91993.468    237.15012    20721    226295.95    68.543409    70.363684    107.10286    28.163686    434.41475    23.506249    22.160977   0.83022391    435.24498    23.397246   -3137.4576 
   17200   -101852.95   -91980.045    239.78527    20721    226312.67    -56.76193   -91.514364   -212.84573     134.0743    434.33455    23.509287    22.163841   0.87032667    435.20487    42.598566   -3164.5114 
   17300   -101814.73    -91977.45     238.9201    20721     226284.9    65.657711    28.886934    207.67508   -39.588883    433.95988     23.51799    22.172046    1.0576592    435.01754    42.996307   -3175.1355 
   17400   -101773.41   -91949.901    238.58558    20721    226193.46    25.643589    119.85659   -126.51875    83.592918    433.98791    23.512479    22.166851     1.043646    435.03155    17.197902   -3177.8452 
   17500   -101859.26   -91917.258    241.46344    20721    226233.97   -120.63921   -136.07231   -44.532908   -181.31241    434.09807    23.511601    22.166022   0.98856407    435.08664    31.229537   -3218.9559 
   17600   -101900.19    -91958.47    241.45669    20721     226401.6    38.976736    199.47871   -19.299262   -63.249241    433.93036    23.524854    22.178518    1.0724192    435.00278     27.80433   -3178.9851 
   17700    -101789.3   -91982.778    238.17308    20721    226308.01   -7.5504964    151.00428    167.60364   -341.25941    434.09507    23.515529    22.169726   0.99006577    435.08513    45.020945   -3173.9563 
   17800   -101827.93   -91965.193    239.53846    20721    226393.66   -86.610424   -60.936867   -134.23095    -64.66345      434.369    23.512561    22.166928   0.85310145     435.2221    38.027782   -3177.2826 
   17900   -101788.98   -91926.581    239.53026    20721    226304.31   -39.984273    71.526204    127.38249   -318.86152    434.20175    23.512448    22.166821   0.93672266    435.13848    61.744176   -3246.2343 
   18000   -101694.32   -91908.273    237.67585    20721    226165.66    31.088927    119.81019   -114.54776    88.004347    434.20767    23.505084    22.159878   0.93376435    435.14144    42.719901   -3251.8223 
   18100   -101799.03   -91947.598    239.26376    20721    226076.32   -53.009844   -173.75496   -241.01547     255.7409    434.07118    23.504135    22.158984    1.0020099    435.07319    63.233658   -3233.7956 
   18200   -101842.43   -91918.631    241.02153    20721    226263.83   -31.163001   -108.79585   -3.8518833    19.158725    434.33528     23.50673    22.161431   0.86995935    435.20524     37.02655   -3234.8474 
   18300   -101841.63   -91905.356     241.3244    20721    226207.11    101.61059   -15.989977    304.99274    15.829016     434.0645    23.511114    22.165564     1.005352    435.06985    36.153906   -3255.4092 
   18400    -101761.2   -91906.441    239.34454    20721    226054.24    -83.00833    -137.1489    86.432335   -198.30842    434.01673    23.504462    22.159292    1.0292328    435.04597    34.254421   -3249.5445 
   18500    -101774.6   -91836.491    241.36901    20721    226116.13    15.174284    136.57843    5.4140385    -96.46962    433.91053    23.510556    22.165037    1.0823338    434.99287    18.486616   -3308.1841 
   18600   -101775.33   -91852.262    241.00356    20721    226097.36   -31.269033   -190.07659   -133.78106    230.05055    433.94102    23.508754    22.163339    1.0670913    435.00811    29.844224   -3303.6566 
   18700   -101691.91   -91783.503    240.64754    20721    226339.33    66.055735    121.37191    11.223277    65.572018    433.98986    23.520006    22.173947    1.0426687    435.03253    12.838382   -3354.4882 
   18800   -101715.02   -91810.595    240.55076    20721    226000.68    68.959548    147.56164    31.205701    28.111302    433.81616    23.507109    22.161788     1.129522    434.94568    8.6080695   -3334.1824 
   18900   -101755.95   -91786.209    242.13716    20721       226101   -36.458374   -82.419695     137.6504   -164.60583    433.77127    23.513542    22.167853    1.1519661    434.92323   -4.5675763   -3338.9344 
   19000    -101552.2   -91673.757    239.91976    20721    226072.09    64.478903    100.24263    146.23448   -53.040403    433.85713    23.509713    22.164242    1.1090357    434.96616   -0.2480622   -3460.9249 
   19100   -101576.15   -91711.028    239.59622    20721    226012.08   -20.404072     58.09127   -12.206169   -107.09732    433.96621    23.503638    22.158515    1.0544966     435.0207   -1.7836109   -3418.7437 
   19200   -101668.61   -91730.757    241.36278    20721    225874.51   -34.239111   -174.90928   0.11445057    72.077498    433.45445     23.51035    22.164843    1.3103763    434.76482   -7.6991562   -3401.0624 
   19300   -101764.77   -91757.365    243.05207    20721    226063.44    33.805477    17.064808    255.56337   -171.21175    433.67649    23.514159    22.168434    1.1993574    434.87584    29.699055   -3411.8141 
   19400    -101713.6   -91732.094    242.42303    20721    225994.37   -13.452117    64.983584   -41.940037   -63.399898    433.55409    23.513885    22.168176     1.260557    434.81464    17.095031   -3424.9994 
   19500   -101703.59   -91778.981    241.04101    20721    225830.53    -92.26708   -71.928098   -109.66278   -95.210361    433.54619    23.505574     22.16034    1.2645049     434.8107    17.003288   -3379.7305 
   19600   -101604.44   -91710.351    240.29994    20721    226112.45    78.810596   -68.333267    179.49002    125.27504    433.99099    23.508185    22.162802    1.0421038     435.0331    22.283605   -3453.8352 
   19700   -101595.29   -91690.421    240.56176    20721    226026.68    43.555504   -8.9865562    175.61558   -35.962512    433.71128    23.511304    22.165742    1.1819619    434.89324    22.169425   -3476.5994 
   19800   -101665.94   -91698.957     242.0703    20721    226022.21   -92.659433    -6.653588   -72.942778   -198.38193    433.86293    23.506962    22.161649    1.1061362    434.96906    14.172956   -3454.4151 
   19900   -101610.23   -91676.666    241.25866    20721    226074.72   -17.762225    35.688714    105.94999   -194.92538    433.81136    23.511089     22.16554    1.1319205    434.94328    24.371722   -3487.8076 
   20000   -101719.01   -91708.591     243.1251    20721    225992.76   -52.853368   -116.92609   -152.24237    110.60835    433.63622    23.511574    22.165997    1.2194885    434.85571    16.244277   -3451.4179 
   20100   -101654.74   -91687.611    242.07374    20721    226104.17    18.374685    136.71616    151.47058   -233.06269    433.78933    23.513218    22.167547    1.1429334    434.93227    16.640002   -3474.9195 
   20200   -101709.03   -91751.556    241.83937    20721    225951.06    20.313863    86.195321   -57.612862     32.35913    433.66623    23.508591    22.163185    1.2044837    434.87072    11.258885   -3410.6554 
   20300   -101678.79   -91681.635    242.80298    20721    225956.25     35.72329   -13.718227   -121.96314    242.85124    433.52992    23.512557    22.166924    1.2726413    434.80256    9.6629246   -3482.6893 
   20400   -101562.67    -91625.26    241.35195    20721    225963.09    18.526528   -143.27934    61.280049    137.57887    433.33878    23.518097    22.172147    1.3682077    434.70699   -22.155042   -3505.4603 
   20500   -101578.51   -91603.927    242.25483    20721    226001.39    49.071166   -186.77396    215.33443    118.65303    433.64137    23.511883    22.166289    1.2169126    434.85829   -25.386311   -3525.2672 
   20600   -101568.35   -91631.799    241.33102    20721    226074.52    39.950352    5.2655538    183.52264   -68.937133    433.57988    23.517354    22.171447    1.2476587    434.82754   -16.995774   -3504.7737 
   20700   -101590.11   -91615.351    242.25903    20721    226097.83   -8.4638419   -12.105669    273.23299   -286.51884    433.56704    23.518915    22.172918    1.2540807    434.82112   -22.276538   -3513.1882 
   20800   -101590.92    -91627.53    241.98286    20721    225949.55   -25.801616    85.387557   -74.644833   -88.147573    433.51058    23.512733     22.16709    1.2823099    434.79289   -12.315818   -3516.1223 
   20900   -101549.59    -91582.86      242.064    20721    225994.29   -48.643565    59.991799    -95.28508   -110.63741    433.65726    23.511083    22.165535    1.2089697    434.86623   -3.5947804   -3567.8528 
   21000   -101506.99   -91534.102    242.21373    20721    225920.89   -4.8403724    38.790163    63.847007   -117.15829    433.81551    23.502977    22.157892    1.1298441    434.94536   -5.4059144   -3619.1221 
   21100   -101551.46   -91542.224    243.09639    20721    226061.37   -41.941477   -19.372135   -237.81007    131.35778     433.5779    23.516724    22.170853     1.248651    434.82655   -3.6740864   -3609.4123 
   21200   -101420.34    -91520.98    240.42789    20721    226072.13     55.07663    210.95252    118.55782   -164.28044    433.75737    23.512418    22.166793    1.1589157    434.91628   -28.439616   -3609.5898 
   21300   -101551.98   -91462.222    245.05219    20721    226161.51    71.527682   -101.11798    159.41711    156.28391    433.80691    23.515723    22.169909    1.1341467    434.94105   -24.410015    -3673.338 
   21400   -101525.99   -91512.012     243.2115    20721    226104.22   -46.199614   -58.846871    206.86562   -286.61759    433.82244    23.512323    22.166704    1.1263783    434.94882   -24.719373   -3621.9677 
   21500   -101542.48   -91481.468    244.35384    20721     226133.6   -8.8006794    105.72511   -175.58022    43.453067    433.96033    23.510115    22.164621     1.057433    435.01777   -28.706993    -3651.233 
   21600   -101449.46   -91453.761    242.76776    20721    226133.88    115.19817    177.87026   -99.774713    267.49896    433.87142    23.512538    22.166906    1.1018891    434.97331   -33.341067   -3679.9042 
   21700   -101486.07   -91452.863    243.67857    20721    226086.68    63.252131    69.433975    226.04001   -105.71759    434.02593    23.505899    22.160647    1.0246345    435.05057    -41.03358    -3672.191 
   21800   -101476.44   -91437.818    243.81016    20721    226276.57   -44.056424   -53.802356   -129.07052    50.703602    433.96454    23.517431    22.171519    1.0553284    435.01987   -23.877166   -3696.1776 
   21900   -101483.44    -91438.04    243.97479    20721    226396.86    51.161305    101.48365   -3.3777601    55.378022    434.25825    23.515725    22.169911   0.90847397    435.16673   -27.330461   -3694.8901 
   22000   -101345.88   -91353.595    242.68466    20721    226473.77   -3.2679935   -95.115795   -193.02457    278.33639    434.47169    23.513941    22.168229   0.80175419    435.27345   -56.780493   -3743.0774 
   22100    -101333.8   -91335.209    242.83786    20721    226158.09    19.821438    79.549986      142.594   -162.67968    434.35541    23.500693    22.155739   0.85989653     435.2153    -73.63278   -3757.2893 
   22200   -101406.88   -91355.999      244.108    20721    226307.99    83.121244    200.29521   -17.593052    66.661577    434.28335     23.51043    22.164918   0.89592442    435.17928   -70.672419   -3740.9444 
   22300   -101337.45   -91366.131    242.17555    20721    226215.48     95.83304    151.46662   -50.166179    186.19868     434.2472    23.506602     22.16131   0.91400083     435.1612    -55.77073   -3749.8757 
   22400   -101342.46   -91316.363    243.50596    20721    226528.16   -90.587976   -261.05178   -78.731521    68.019373    434.45513    23.517213    22.171313   0.81003657    435.26516   -81.412108   -3757.1202 
   22500   -101454.24   -91341.424    245.61216    20721    226246.74    60.134909    91.462278    160.97061   -72.028158     434.4701    23.502195    22.157155     0.802548    435.27265   -115.34985   -3717.3369 
   22600   -101414.32   -91351.972    244.38636    20721    226319.17   -6.4752754    127.30635    39.642855   -186.37503    434.53944    23.504082    22.158934   0.76787815    435.30732   -82.352682   -3734.3595 
   22700   -101351.96    -91329.34    243.42153    20721    226057.83   -44.606283    156.04394   -24.633339   -265.22944    434.26275    23.497989     22.15319   0.90622468    435.16898   -90.234608   -3755.5697 
   22800   -101437.25   -91325.799    245.57891    20721    226258.36   -69.993654   -117.86041    105.60468   -197.72523    434.53942    23.500924    22.155957   0.76789075    435.30731   -65.629544   -3779.0489 
   22900   -101276.31   -91331.439    241.53326    20721    226220.24    31.863186    122.89507   -197.46235    170.15683    434.31736    23.504951    22.159753   0.87892213    435.19628   -75.961708   -3770.3695 
   23000   -101324.41   -91325.575    242.84376    20721    226260.21   -12.109586   -41.713144   -129.20237    134.58676     434.4891    23.502381     22.15733   0.79304959    435.28215   -62.007511   -3789.0476 
   23100   -101345.19   -91325.209    243.35736    20721    226183.92   -13.543838     7.148186    33.460686   -81.240386    434.56005      23.4965    22.151786   0.75757538    435.31762    -63.99058    -3790.568 
   23200   -101320.78    -91312.74    243.06744    20721    226194.36   -21.460302    74.742675   -139.93217   0.80859219    434.53529    23.497712    22.152928   0.76995525    435.30524   -59.629169   -3808.6409 
   23300   -101435.61   -91318.254    245.72249    20721    226261.06    5.0211003    -209.8463   -16.203413    241.11301    434.61094    23.499131    22.154266   0.73213196    435.34307   -71.056758   -3790.4924 
   23400   -101340.02    -91283.34    244.24865    20721    226077.34      13.9199    227.33559    85.158694   -270.73459    434.19433    23.500855    22.155892   0.94043672    435.13476   -80.124847   -3823.6017 
   23500   -101308.64   -91313.626    242.75096    20721    226267.45     43.51816   -73.572678    215.68646   -11.559298    434.33553    23.506912    22.161602   0.86983682    435.20536   -43.819927   -3826.8183 
   23600   -101372.13   -91296.851    244.70049    20721    226317.52   -34.132058   -47.150979   -194.65581    139.41061    434.54929    23.503729    22.158602    0.7629534    435.31225   -48.348146   -3835.8716 
   23700   -101339.85   -91280.064    244.32406    20721    226328.59    8.2450287   -73.116639    195.75815    -97.90642    434.46565    23.506567    22.161277   0.80477687    435.27042   -61.214681   -3842.6547 
   23800   -101353.67   -91259.755    245.15314    20721    226542.94   -50.607411    60.415123   -230.27194    18.034582    434.50793    23.516551     22.17069   0.78363562    435.29156   -50.156582   -3865.8948 
   23900   -101382.58   -91260.829    245.82924    20721    226441.32   -25.868144   -11.044235   -87.222593    20.662397    434.42618    23.513488    22.167802   0.82451102    435.25069   -66.502404    -3853.885 
   24000   -101338.68   -91236.138    245.36248    20721    226635.85   -11.489886   -84.354006   -103.92351    153.80786    434.82568    23.512777    22.167131   0.62476051    435.45044   -61.622088   -3878.4053 
   24100   -101251.55   -91174.503    244.74336    20721    226546.43    45.182941   -64.701113    111.64754    88.602393    434.82209    23.508235    22.162849   0.62655319    435.44865   -68.623435   -3937.1753 
   24200   -101295.13   -91188.517    245.46136    20721     226456.6    64.665318    96.761865    307.06925   -209.83516    434.67968    23.507424    22.162085   0.69776077    435.37744    -60.12966    -3939.552 
   24300   -101409.96   -91220.877    247.46434    20721    226288.96   -98.000597   -193.19654    29.426028   -130.23128    434.49591     23.50369    22.158564   0.78964295    435.28556   -59.051917   -3906.8705 
   24400    -101311.3   -91235.408    244.71543    20721    226300.12   -1.6445881   -52.303605   -23.279464    70.649305    434.37207     23.50762    22.162269   0.85156478    435.22364   -65.313702   -3889.1132 
   24500   -101282.02   -91221.285    244.34711    20721    226255.31    76.428407   -57.199293   -23.455316    309.93983    434.43324    23.503638    22.158515    0.8209822    435.25422   -63.578638   -3913.0852 
   24600   -101319.85   -91180.833    246.24858    20721    226138.67   -67.690452   -34.934916   -381.92801    213.79157    434.15876    23.505005    22.159804   0.95821812    435.11698   -91.676583   -3921.5449 
   24700    -101252.8   -91176.484    244.72552    20721    226347.07    58.642996    2.5845561    402.67025   -229.32582     434.4064    23.509129    22.163692   0.83439885     435.2408   -77.718195    -3941.403 
   24800   -101254.09   -91189.659    244.43689    20721    226127.35   -34.320877   -13.470264    18.401345   -107.89371    434.16924    23.504133    22.158982   0.95297777    435.12222   -87.019558   -3920.6325 
   24900    -101223.1   -91149.505    244.65957    20721    226422.03    62.856553   -147.86133    53.224699    283.20629    434.21764    23.518132     22.17218   0.92878197    435.14642   -107.22558   -3940.5124 
   25000   -101194.42   -91159.176    243.72808    20721    226228.34    76.378725    126.27186    153.84185   -50.977536    434.14261    23.510102    22.164609   0.96629384    435.10891   -102.00985   -3941.7699 
   25100   -101306.33   -91154.042    246.57076    20721     226492.7   -87.009998   -88.122274   -135.61203   -37.295694    434.16767    23.523156    22.176916   0.95376468    435.12144   -102.02895   -3934.1182 
   25200   -101263.54   -91094.237    246.98415    20721    226324.67    40.152514   -88.330679     133.1433     75.64492    434.03156    23.518115    22.172164    1.0218206    435.05338   -136.35293   -3972.8764 
   25300    -101300.3   -91151.833    246.47794    20721     226219.1   -50.510716     66.71394   -198.52966   -19.716428    434.31414    23.504979    22.159779   0.88052928    435.19467   -97.846008   -3953.1472 
   25400   -101281.92   -91137.533    246.37881    20721    226274.99    118.23695    12.642484    190.64846    151.41991    434.25055    23.509604     22.16414   0.91232331    435.16288   -124.55424   -3947.6668 
   25500   -101273.33   -91102.267    247.02689    20721    226205.95    -131.9763   -172.08959   -471.22602    247.38671    434.21216    23.507056    22.161738   0.93152172    435.14368    -108.2314   -3990.9475 
   25600   -101247.92   -91095.899    246.56432    20721    226063.62    26.637364    44.429906     -413.423    448.90518    433.90735    23.507912    22.162545    1.0839241    434.99128   -121.41065   -3997.4646 
   25700   -101209.31   -91105.422    245.39525    20721    226290.23    20.764935     214.7291   -317.58939    165.15509    434.39746    23.506419    22.161138    0.8388724    435.23633   -98.587438   -4004.4122 
   25800   -101276.32   -91085.076    247.51698    20721    226057.61   -18.305001   -67.029717    -53.26238    65.377093    434.50412     23.49145    22.147025   0.78554154    435.28966   -89.170764   -4041.1446 
   25900   -101168.47   -91024.231    246.37541    20721    226284.32    26.745733    3.2112389   -36.962945    113.98891    434.57169      23.5014    22.156405   0.75175609    435.32344   -98.863515   -4088.5308 
   26000   -101272.34   -91098.311    247.09871    20721    226069.58   -92.402759   -92.197527   -22.935048    -162.0757    434.12558    23.502312    22.157266   0.97480994    435.10039   -86.801811   -4030.9489 
   26100   -101277.64   -91106.324    247.03291    20721    226078.16    28.696704    52.169867    34.890269  -0.97002279     434.0315    23.505305    22.160087    1.0218497    435.05335   -94.850719   -4021.4049 
   26200   -101180.95   -91054.475    245.94378    20721    226061.99   -35.543251    70.152782   -149.89727   -26.885264    433.79238    23.510942    22.165401    1.1414105    434.93379   -87.651829   -4077.2151 
   26300   -101225.92   -91086.559    246.25678    20721    226095.46   -33.710966   -45.823127    14.093868    -69.40364    434.03185    23.506195    22.160926    1.0216772    435.05352   -97.733539     -4035.67 
   26400   -101234.62   -91072.692    246.80498    20721    226090.48   -30.441627    92.831226    27.305813   -211.46192    434.29266    23.498877    22.154027   0.89126958    435.18393   -88.036571   -4059.7592 
   26500   -101238.02   -91056.348     247.2845    20721    226046.88   -61.137605   -406.08358    19.452383    203.21839    434.00137    23.504495    22.159323    1.0369143    435.03829   -90.407876   -4074.4628 
   26600   -101244.18   -91045.514    247.69705    20721    225918.88   -21.741072   -81.442989    189.00044   -172.78067    433.70927    23.505751    22.160507    1.1829627    434.89224   -98.159088   -4086.1701 
   26700   -101166.52   -91057.929    245.50946    20721    225975.66   -61.521888   -111.78227   -138.21001    65.426612    433.62752     23.51092    22.165381    1.2238384    434.85136    -93.02352   -4075.1708 
   26800   -101111.79   -90991.553    245.79247    20721    225988.71    10.618213    79.952292    187.20717   -235.30483    433.63252    23.511464    22.165893    1.2213395    434.85386    -117.0683   -4120.4599 
   26900   -101269.62   -91019.723    248.94138    20721    226025.47   -64.303124   -201.40203   -8.8420412    17.334703    433.58377    23.514697    22.168942    1.2457165    434.82948   -110.95142   -4097.5305 
   27000   -101259.54   -91007.924    248.98312    20721    225863.36    31.331888    11.962231    207.53353    -125.5001    433.34299    23.512793    22.167147    1.3661058    434.70909   -109.63331   -4121.9814 
   27100   -101104.65   -90958.981    246.41014    20721    225909.82   -7.5960496    28.797529   -197.37157    145.78589    433.36102    23.514722    22.168965    1.3570902    434.71811   -111.14178   -4163.4385 
   27200   -101139.29   -91000.238    246.24938    20721    225956.58    39.223129    190.75337   -120.22306    47.139077    433.74408    23.506769    22.161467    1.1655576    434.90964   -98.491175   -4140.2451 
   27300   -101170.33   -91042.811     245.9692    20721    225880.99    49.998817    63.189851   -124.54875    211.35535     433.5687    23.507589    22.162241    1.2532493    434.82195   -81.200103   -4117.8813 
   27400   -101231.04   -91041.988    247.46372    20721    225932.73   -89.717215   -219.12905   -108.32826    58.305666    433.41921    23.514336    22.168601    1.3279935    434.74721   -92.666986   -4101.1707 
   27500   -101135.11   -91046.147     245.0329    20721    225921.79    -5.673977    110.50801   -137.70031    10.170372    433.49436    23.511728    22.166142    1.2904203    434.78478   -85.973045   -4106.8659 
   27600   -101221.28   -91002.188    248.19321    20721    225886.74    4.8627882   -169.88199    144.05875    40.411603    433.43882     23.51141    22.165843    1.3181913    434.75701   -112.74702   -4128.2875 
   27700   -101186.33   -90960.975    248.34545    20721    225967.27   -50.023178   -297.74719    128.80944    18.868215    433.31321    23.519009    22.173007    1.3809947    434.69421    -111.4418   -4166.1257 
   27800      -101190   -90976.971    248.04598    20721    225710.02   -104.50903   -261.90361   -61.367033    9.7435712    433.39215    23.503477    22.158364    1.3415271    434.73367   -96.049246   -4172.5476 
   27900   -101134.52   -90982.503    246.56412    20721    225932.39    38.288277   -57.632018   -6.5471396    179.04399    433.24203    23.519126    22.173117    1.4165868    434.65861   -112.31251   -4151.2823 
   28000   -101018.94   -90961.449    244.26835    20721    225924.77    -17.45234   -223.66427    26.715767    144.59148    433.37399    23.515148    22.169366    1.3506025     434.7246    -108.8454    -4174.291 
   28100   -101080.01   -90911.622    246.96172    20721    225720.63   -13.988213    12.085559   -83.869145    29.818946    433.02018    23.514122    22.168399    1.5275085    434.54769   -116.46698   -4225.2983 
   28200    -101136.5   -90916.002    248.22729    20721    225991.11  -0.85659239   -107.32575    239.41196   -134.65598    433.14013    23.524949    22.178607    1.4675375    434.60766   -109.04136   -4221.0192 
   28300   -101113.29   -90969.353    246.36792    20721     225867.3   -37.312023    105.98489   -262.58173    44.660778    433.06542    23.520532    22.174442    1.5048897    434.57031   -83.994935   -4195.5428 
   28400   -101021.05   -90940.712    244.82327    20721    225923.59    60.837577    62.318279   -28.657174    148.85162    433.22354     23.51917    22.173158    1.4258296    434.64937   -86.335077   -4226.5382 
   28500   -101115.25   -90925.533    247.47982    20721    225905.95   -75.885083   -18.794492   -6.7973816   -202.06338     433.3054     23.51603    22.170198    1.3849011     434.6903   -71.242467   -4250.4026 
   28600   -101048.72   -90953.636     245.1814    20721    225654.61    101.93487    87.905209    79.317733    138.58167     433.2744    23.503785    22.158654     1.400402     434.6748   -72.654947   -4239.3855 
   28700   -101139.33   -90959.488    247.24009    20721    225745.29   -30.909371   -77.343366    179.04715    -194.4319     433.3457    23.506573    22.161283     1.364751    434.71045   -75.210286    -4223.394 
   28800   -101095.21   -90916.582    247.21062    20721    225652.78   -9.5201244   -24.673311    87.117282   -91.004345    433.14455    23.507213    22.161885    1.4653263    434.60987   -99.024293   -4248.2311 
   28900   -101067.71   -90924.508    246.35005    20721    225633.39    35.279026   -71.470957    296.42675   -119.11871    433.16588    23.505624    22.160387    1.4546605    434.62054   -104.80197   -4237.7188 
   29000   -101096.49   -90938.192    246.71684    20721    225897.01    26.750723   -76.985223   -282.67162    439.90901    433.27039    23.516514    22.170655    1.4024031     434.6728   -97.441785   -4222.9289 
   29100   -101093.16   -90901.817    247.51939    20721     225892.2   -11.500528    24.454303   -76.369852    17.413965    433.33271    23.514573    22.168825    1.3712468    434.70395   -92.896405   -4264.2195 
   29200   -101144.59   -90899.402    248.82701    20721    225914.75    24.015065     6.623424     236.3995   -170.97773       433.61    23.508227    22.162841    1.2326017     434.8426   -74.700637   -4287.9757 
   29300   -101116.48   -90863.094     249.0262    20721    226046.45   -46.285212   -146.65092    207.04476   -199.24948    433.53205    23.517192    22.171293    1.2715755    434.80362   -94.308666   -4297.3726 
   29400   -101053.01   -90864.439    247.45193    20721    225890.75    15.742456   -147.90573   -53.048963    248.18206    433.17077    23.518892    22.172897     1.452213    434.62299   -71.598724   -4328.3836 
   29500   -101044.91   -90847.635    247.66333    20721    225984.25   -102.81114   -255.69084   -70.217605    17.475011    433.52234    23.514219    22.168491     1.276428    434.79877   -89.839914   -4318.2987 
   29600   -101042.37   -90812.605     248.4525    20721    225918.47   -12.557305    -138.2436   -86.295417     186.8671    433.28187     23.51732    22.171414    1.3966654    434.67853   -98.881042    -4351.952 
   29700   -101036.63   -90868.669    246.95148    20721    225843.69    83.491177    19.279744    210.03623    21.157559    433.33396    23.512014    22.166412    1.3706214    434.70458   -85.031477   -4318.1424 
   29800   -101014.97   -90849.928    246.88053    20721    225827.89   -63.427761    -27.19915    11.978292   -175.06242    433.45414    23.507932    22.162564    1.3105297    434.76467   -67.092157   -4349.3344 
   29900   -101040.04   -90853.021    247.41421    20721    225949.41    26.810165    55.008729    65.618228   -40.196463    433.44591     23.51448    22.168736     1.314646    434.76055   -92.356756   -4324.2727 
   30000   -101040.91   -90829.727    248.00111    20721    225842.64    84.789372    176.36439    35.634721    42.369002    433.41774    23.509687    22.164218    1.3287322    434.74647   -101.38383   -4341.4091 
   30100   -100979.04   -90829.203    246.51135    20721    225691.85  -0.68660842   -158.08687    68.861679     87.16537    433.38724    23.502664    22.157597    1.3439785    434.73122   -107.53088   -4339.3873 
   30200   -101009.47   -90844.821    246.87094    20721    225724.72   -68.969612    107.33119   -200.19068   -114.04935    433.32674    23.506016    22.160758    1.3742283    434.70097   -84.452006   -4344.0284 
   30300   -101057.97   -90833.294    248.32896    20721    225913.84    82.877318    144.63786   -148.66469    252.65878    433.56189    23.509483    22.164026     1.256653    434.81855   -102.79638   -4343.4487 
   30400   -100973.91   -90781.894    247.53562    20721    225841.28   -46.680649    81.063441   -74.354548   -146.75084       433.67    23.502778    22.157704    1.2026014     434.8726   -92.846551   -4401.2125 
   30500   -100972.36    -90826.01    246.42667    20721    225978.19    90.183277    79.373772    118.17263     73.00343    433.60504    23.511661     22.16608    1.2350792    434.84012   -84.641453   -4368.7448 
   30600   -101017.48   -90780.923    248.61755    20721    225763.75   -103.62203   -138.65674   -233.19141    60.982069    433.44722    23.504781    22.159593    1.3139917    434.76121   -105.18983   -4389.6699 
   30700   -101030.51   -90777.583    249.01495    20721    225886.15    40.458941   -67.831834       322.16   -132.95134    433.36338    23.513426    22.167743    1.3559118    434.71929   -102.05531    -4402.668 
   30800   -100932.06   -90744.903     247.4176    20721     225785.8   -64.233051   -161.26133    40.478052   -71.915873    433.62572     23.50109    22.156113    1.2247383    434.85046    -108.2238   -4425.4508 
   30900   -100920.12   -90749.582    247.01398    20721    225882.29   -22.903324    112.70991    294.05985   -475.47973    433.50805    23.509301    22.163855    1.2835768    434.79162    -113.4393   -4417.7221 
   31000    -100999.4   -90691.532    250.34931    20721    225652.81   -28.185513     24.81991    256.63224   -366.00869     433.2739    23.503705    22.158578    1.4006493    434.67455   -117.26558   -4480.4237 
   31100    -100823.9   -90713.521    245.55294    20721    225530.76    19.141996   -31.270352   -198.54193    287.23827    433.43623    23.492947    22.148436    1.3194862    434.75571   -99.774993   -4483.2381 
   31200   -101014.46   -90714.134    250.16616    20721    225807.04   -46.224549     36.82327   -179.21553    3.7186185    433.35997      23.5094    22.163948    1.3576148    434.71759   -113.61601   -4459.0348 
   31300   -100895.06   -90663.151    248.50459    20721    225657.54    21.015441   -7.3498199    337.05086   -266.65471    433.22626    23.505243    22.160029    1.4244683    434.65073   -128.31958   -4502.6479 
   31400   -100932.83   -90655.313    249.61224    20721    225918.02   -78.929337   -2.6229479    164.28301   -398.44808    433.40473    23.513963    22.168249    1.3352366    434.73996   -119.65189   -4509.3959 
   31500   -100823.34   -90582.533    248.72064    20721    225891.17    56.744056    179.63254    34.589098   -43.989469    433.43783    23.511668    22.166085    1.3186843    434.75652   -144.44635   -4563.5923 
   31600    -100855.8   -90585.325    249.44113    20721    225750.29    30.155775    24.862447    65.498228   0.10664868    433.19289    23.510979    22.165436    1.4411538    434.63405   -141.94526   -4568.2909 
   31700   -100955.73   -90653.572    250.21079    20721    225868.82   -16.721446   -21.704897   -83.028199    54.568759    433.12482    23.518998    22.172997    1.4751902    434.60001   -114.02176    -4525.693 
   31800    -100900.8   -90632.562     249.3869    20721    225837.76     29.38078    65.951211     19.24276    2.9483684    433.23962    23.514265    22.168534    1.4177886    434.65741   -130.91511   -4532.4004 
   31900   -100949.09   -90642.474     250.3191    20721     225975.2    42.800847    52.800797   -113.20193    188.80368    433.28527     23.52018    22.174111    1.3949653    434.68023   -139.96835   -4513.3648 
   32000   -100945.82   -90660.314    249.80636    20721     225790.6     43.90636    92.315283    41.294046   -1.8902507    433.27872    23.510749    22.165219    1.3982398    434.67696   -122.37268    -4518.658 
   32100   -100988.16   -90628.782    251.60048    20721    225767.07   -67.051723     -162.097    110.52809   -149.58626    433.13731    23.513361    22.167682    1.4689459    434.60625    -140.5609   -4529.2127 
   32200   -100869.04   -90642.489    248.37452    20721    225711.75   -35.312931   -42.199894   -89.935931    26.197032    433.03238    23.513329    22.167651    1.5214118    434.55379   -132.00915   -4525.2325 
   32300   -100790.02   -90614.002    247.14712    20721    225648.01    36.669781    40.228717    92.888597   -23.107972    432.80619    23.516151    22.170312    1.6345056    434.44069   -138.24947   -4556.6121 
   32400   -100814.76   -90579.554    248.58463    20721    225845.38   -80.411075   -101.79504    234.13715   -373.57534    433.15771    23.516885    22.171004    1.4587432    434.61646   -137.74057   -4579.7328 
   32500   -100795.19   -90549.043    248.85047    20721    225899.64    67.393752    69.940075    70.442552    61.798629    433.17195    23.519323    22.173303    1.4516268    434.62357   -162.51049   -4592.4736 
   32600   -100860.87   -90546.132    250.51621    20721    225606.25   -40.060209    20.110387   -442.08704    301.79603    432.96153    23.509756    22.164283    1.5568357    434.51836   -170.41163   -4593.4115 
   32700   -100840.68   -90571.569    249.40814    20721    225838.39    12.078073    -149.5307    332.76936   -147.00444    433.21384    23.514998    22.169225    1.4306823    434.64452   -149.29944   -4583.1247 
   32800    -100788.9   -90561.238    248.40149    20721    225913.68    91.287992   -19.040932     223.0358    69.869105    433.05164    23.523321    22.177072    1.5117789    434.56342   -149.23852   -4599.5149 
   32900   -100840.61   -90570.624    249.42942    20721    225883.36    139.49321      113.037    20.115338    285.32731    433.08249    23.520905    22.174794    1.4963567    434.57884   -136.39822   -4607.4876 
   33000   -100799.28   -90579.855    248.20136    20721    225866.06   -12.457425   -198.58337    1.5994729    159.61162    433.08914    23.519823    22.173774    1.4930294    434.58217   -120.55321   -4605.9607 
   33100   -100853.04   -90546.775    250.31035    20721    225915.29    14.738748    79.850042   -195.12983    159.49604    433.24725    23.518094    22.172144    1.4139731    434.66123   -124.53284    -4639.011 
   33200   -100826.71   -90528.456    250.11598    20721     225793.9   -5.8723011    79.703594   -155.97853    58.658029    433.19111    23.513298    22.167623     1.442044    434.63316   -108.67709   -4675.4286 
   33300   -100809.41   -90545.517    249.28136    20721    225927.76    28.946429   -77.056902    97.954278    65.941912    433.37058    23.515396    22.169601    1.3523103    434.72289   -110.21902   -4654.5407 
   33400   -100878.37   -90539.996    251.09035    20721    225920.91   -40.773179    19.543541   -93.110983   -48.752096    433.16742    23.520554    22.174463    1.4538897    434.62131   -99.958825   -4668.9827 
   33500   -100784.92   -90554.149    248.47685    20721    225687.54    52.159205   -13.966613    82.299445    88.144783    432.97431    23.513644    22.167949    1.5504445    434.52476    -88.40778   -4678.4438 
[...]
  491800   -95890.784   -84200.833    283.91635    20721    221802.11   -71.105834   -20.206411 -0.064248767   -193.04684    425.44457    23.515735     22.16992    5.3153158    430.75988    5316.3177   -23596.816 
  491900   -95872.327   -84225.642    282.86552    20721    221891.02    16.512603    120.57548   -185.87233    114.83465     424.8629    23.536543    22.189537    5.6061488    430.46905    5298.9416   -23559.139 
  492000   -95890.129   -84217.999    283.48351    20721    221828.54   -150.93789   -179.75901   -430.37309    157.31843    424.76845    23.535845    22.188879    5.6533753    430.42182    5288.7196   -23554.573 
  492100   -95759.632   -84185.615    281.10061    20721     221845.3  -0.54859758   -122.02294    48.299872    72.077279    424.90563    23.532935    22.186135    5.5847861    430.49041    5286.0517    -23590.14 
  492200   -95813.698   -84230.316    281.32806    20721    221792.81    41.114515    217.95535   -288.26845    193.65665    424.60823     23.53839    22.191278    5.7334838    430.34172    5297.7826   -23564.018 
  492300   -95750.174   -84164.466    281.38457    20721    221609.14    51.239097   -8.5828119    125.92515    36.374956    424.70471    23.525969    22.179568    5.6852454    430.38995    5286.0097    -23625.27 
  492400   -95859.442   -84178.336    283.70152    20721    221816.92   -53.320593    186.82052   -249.77561   -97.006686    424.52104    23.542086    22.194763    5.7770795    430.29812    5306.3794   -23622.596 
  492500   -95927.898   -84267.638    283.19523    20721    221633.57    30.655762    88.847587   -33.962767    37.082466    424.83135    23.523758    22.177484    5.6219262    430.45327    5322.8784   -23561.996 
  492600   -95905.724   -84259.484    282.85472    20721    221412.76   -42.571742   -28.217144   -71.479018   -28.019065    424.99901    23.507399    22.162061    5.5380959     430.5371    5312.9738   -23565.814 
  492700   -95882.854   -84246.282    282.61991    20721    221361.06      68.2125    23.013726    58.652109    122.97166    424.37557    23.521913    22.175745    5.8498165    430.22538    5303.1315   -23578.115 
  492800   -95816.916   -84245.491    281.03767    20721    221436.06    4.9808665   -47.257012    -350.4109    412.61051    424.34661      23.5267    22.180258    5.8642961     430.2109    5310.7303   -23582.658 
  492900   -95837.383   -84280.327     280.6887    20721    221177.11    15.459642   -98.980648    -3.019284    148.37886    424.14883    23.518421    22.172452    5.9631826    430.11202     5327.896   -23576.099 
  493000   -95945.905   -84289.765    283.09515    20721     221388.8   -50.566186   -216.22264    13.671369    50.852718    424.03725    23.532769    22.185979    6.0189739    430.05623    5322.8938    -23553.99 
  493100   -95890.015    -84294.99    281.61084    20721    221406.79    72.832714    68.961739    211.24885   -61.712443     423.6523    23.544415    22.196959    6.2114489    429.86375    5324.7072   -23555.075 
  493200   -95810.356   -84315.405    279.18032    20721    221296.02   -15.252076   -92.848817   -34.433755    81.526345    423.37781    23.546153    22.198597    6.3486956     429.7265    5338.3831   -23549.614 
  493300   -96016.594   -84309.836    284.32451    20721    221229.55    36.826881    192.10358   -31.615193   -50.007745    423.47586    23.539891    22.192694    6.2996701    429.77553     5324.037   -23549.515 
  493400   -95930.961   -84257.098    283.52559    20721    221263.52   -136.34292   -117.40227   -351.07451    59.448028    423.29975    23.546595    22.199014    6.3877228    429.68748    5293.9338   -23562.735 
  493500   -95952.452   -84291.532    283.21124    20721    221161.68    48.448485    213.12831   -42.306731    -25.47612    423.36966    23.539232    22.192073    6.3527724    429.72243    5307.9891   -23554.759 
  493600   -95829.547   -84266.715    280.82896    20721    220915.32   -40.005665    -24.50757   -14.462575    -81.04685     423.2823    23.528545    22.181997    6.3964477    429.67875     5295.412   -23570.928 
  493700   -95918.891   -84308.216    281.99093    20721    220774.71    112.55844    65.596692    15.325246    256.75338     422.9102    23.531402     22.18469    6.5825019     429.4927    5298.3745    -23547.87 
  493800   -96017.806   -84281.021     285.0538    20721    220905.04   -49.685756   -57.654981   -173.37744    81.975151    423.00364    23.535746    22.188786     6.535782    429.53942    5312.0099   -23581.214 
  493900   -95996.979    -84251.51     285.2647    20721    220848.46   -235.93728   -464.36506   -151.15316   -92.293629    422.87382    23.536344     22.18935    6.6006912    429.47451    5311.9443   -23602.567 
  494000   -95863.222   -84271.482    281.53106    20721     220868.1    -79.69238   -254.34669   -72.616807    87.886359    422.96487    23.534857    22.187947    6.5551629    429.52004    5330.2983   -23607.181 
  494100    -95687.26   -84219.135    278.52881    20721    220866.27    146.16867   -76.101847    37.642293    476.96556    422.72322    23.541485    22.194197    6.6759885    429.39921    5321.6998   -23663.287 
  494200   -95740.998   -84238.392    279.36625    20721    221022.54       63.109   -123.69414    190.69822    122.32292    422.88385    23.545339     22.19783    6.5956729    429.47953    5319.4133   -23634.715 
  494300   -95803.259   -84249.877    280.59945    20721    220762.87    13.513972   -167.89876   -40.799647    249.24032    422.36848    23.545856    22.198317    6.8533582    429.22184    5328.8669   -23641.701 
  494400   -95861.293   -84202.187    283.16719    20721    220939.44    53.321198    34.222186    10.314109     115.4273    422.70732    23.545827     22.19829    6.6839423    429.39126    5338.3963   -23695.038 
  494500   -95770.736   -84216.828    280.61225    20721    220928.96   -55.814006   -247.96369   -5.3656092    85.887281    422.81635    23.542233    22.194902    6.6294239    429.44578    5321.9937   -23662.414 
  494600   -95803.671   -84182.333    282.24991    20721    220897.64    54.753321   -53.933832    204.32482    13.868977    422.65323    23.545106    22.197611    6.7109847    429.36422    5330.1062    -23712.45 
  494700   -95827.457   -84176.355     282.9728    20721    220789.49    26.670821    155.68174    62.041491   -137.71077    422.54474    23.542364    22.195025    6.7652303    429.30997    5330.4059    -23721.14 
  494800   -95737.324   -84141.713    281.62506    20721     220545.5    91.412911    131.00078    326.03818   -182.80023    422.29585    23.536285    22.189294    6.8896759    429.18552    5330.5224   -23770.137 
  494900   -95741.234   -84111.127    282.46291    20721    220765.53   -17.744277    37.681408    85.769626   -176.68386    422.42536    23.544413    22.196956    6.8249206    429.25028    5329.6282   -23785.621 
  495000   -95831.284   -84126.504    284.27649    20721    220534.14   -40.455418   -108.99082   -89.186728    76.811291     422.1128    23.540781    22.193533     6.981201      429.094    5331.6122   -23784.218 
  495100   -95795.028   -84181.137    282.06905    20721    220461.53    74.479251    80.845647    -194.1931    336.78521    422.17425    23.535192    22.188264    6.9504734    429.12473    5366.1401   -23773.393 
  495200   -95866.282   -84218.832     282.8841    20721    220681.45    20.826728    37.350326     32.31761   -7.1877528    422.64092    23.533925    22.187069     6.717142    429.35806    5375.1894   -23736.676 
  495300   -95786.251   -84216.045    281.00806    20721     220356.6   -41.158593   -42.143232   -96.631282    15.298735    422.61871    23.517215    22.171315    6.7282431    429.34696    5388.9068   -23760.811 
  495400   -95875.278     -84199.2    283.57941    20721    220551.49    84.327768   -2.9139014    434.73705   -178.83984    422.51097    23.530612    22.183945    6.7821138    429.29309    5365.6767   -23758.249 
  495500   -95860.248   -84195.164     283.3124    20721    220775.32    17.260299   -40.310217    149.49472   -57.403605    422.50915    23.542599    22.195247    6.7830248    429.29218     5389.529   -23776.259 
  495600   -95889.922   -84182.961    284.32946    20721    220747.86    18.587585   -193.05162    253.03111   -4.2167343    422.61131     23.53829    22.191184    6.7319456    429.34325    5383.6902   -23784.758 
  495700    -95764.07   -84175.827    281.44612    20721    220686.41    104.56148    131.37219     115.2008    67.111441    422.16631    23.547414    22.199786     6.954445    429.12076    5387.1678   -23802.847 
  495800   -95882.649   -84211.385    283.46247    20721     220687.7   -80.916135    58.967296   -262.29358   -39.422126    422.29288    23.543954    22.196524    6.8911598    429.18404    5392.3109   -23768.606 
  495900   -95952.539   -84210.856    285.17276    20721    220775.07   -92.501862   -59.612625   -17.817035   -200.07593    422.35258     23.54695    22.199348     6.861308    429.21389      5402.09   -23776.588 
  496000   -95874.953   -84174.751     284.1653    20721    220842.95   -103.19441   -241.54984     1.834612   -69.867998    422.31149    23.551715    22.203841    6.8818548    429.19335    5387.4117   -23794.679 
  496100    -95925.86   -84252.349    283.51704    20721    220657.06      52.6439    121.66067    77.004776   -40.733748    422.37663    23.539985    22.192782    6.8492828    429.22592    5376.7037    -23721.67 
  496200    -95884.94    -84212.25    283.49711    20721    220818.51   -24.987214   -1.8178739   -105.14693    32.003165    422.44768    23.546616    22.199033    6.8137621    429.26144    5367.1526   -23745.758 
  496300   -95897.778    -84274.26    282.30287    20721     220589.9   -57.132198   -85.931565   -91.404932    5.9399023    422.09132    23.544356    22.196903    6.9919425    429.08326    5387.8614   -23710.304 
  496400    -95893.34   -84271.019     282.2738    20721    220719.45   -24.840893    63.378134   -159.92268    22.021867    422.28899    23.545756    22.198223    6.8931061    429.18209    5398.0815   -23723.561 
  496500   -95893.976   -84298.446    281.62311    20721    220690.32    137.23087    358.41668    227.71717   -174.44125    422.31674    23.543429    22.196029    6.8792314    429.19597    5405.0037   -23713.805 
  496600   -95953.794   -84330.653    282.29371    20721    220728.67    60.558999    237.49863   -125.51205    69.690426    422.48407    23.540811    22.193561    6.7955666    429.27963     5405.606   -23678.679 
  496700   -95940.104   -84281.355    283.15851    20721    220859.98     38.91102   -56.156232    139.81583    33.073465     422.7694    23.539865    22.192669    6.6528982     429.4223    5391.7715   -23711.237 
  496800   -95821.264   -84245.706    281.13806    20721    221028.35   0.10953327   -28.832948    -348.1611    377.32265    422.70408    23.550654    22.202841    6.6855584    429.38964    5401.4835   -23752.658 
  496900   -95877.872   -84287.968    281.48647    20721    220772.86     45.36267   -112.42226    137.33173    111.17854    422.57052    23.540759    22.193512    6.7523424    429.32286    5382.9259   -23702.797 
  497000   -95931.676   -84316.701    282.09537    20721    220744.58    41.948036    136.97078    76.808891   -87.935565    422.27991    23.547349    22.199725    6.8976439    429.17756    5414.2133   -23707.561 
  497100   -95849.742   -84286.549    280.83773    20721    221076.66    42.089702    66.160854     75.90752    -15.79927    422.62344    23.555475    22.207386    6.7258777    429.34932    5411.6158   -23725.911 
  497200   -95850.367   -84311.987    280.23511    20721    220812.63    7.8648234   -62.137179   -119.33496    205.06661    422.59559    23.542181    22.194852     6.739803     429.3354    5402.7659   -23699.905 
  497300    -95834.12   -84308.722    279.91981    20721    220951.33   -22.529617   -141.32917    173.70336   -99.963045    422.73708    23.545632    22.198106     6.669059    429.40614    5400.1397   -23695.543 
  497400   -95876.355   -84310.452    280.90357    20721    221304.73   -5.4707612   -130.35658   -88.472214    202.41651    422.93042    23.559068    22.210773    6.5723917    429.50281    5416.2313   -23700.092 
  497500    -95971.51   -84259.555    284.45075    20721    220916.27   -21.116989    59.633302   -139.01881    16.034545    422.76941    23.542864    22.195496    6.6528933    429.42231    5378.8919   -23728.921 
  497600   -95878.983   -84259.364    282.20818    20721    220875.86    67.518717    65.810111    171.48647   -34.740427    422.71906    23.542112    22.194788    6.6780712    429.39713    5402.5628   -23757.728 
  497700   -95797.012   -84249.868    280.44793    20721    221029.49    73.596171   -21.960165    159.38968    83.358996    422.68611    23.551216    22.203371    6.6945472    429.38065    5385.3229   -23746.504 
  497800   -95855.006   -84279.769    281.13025    20721    221361.84   -170.67152    6.9401227   -359.76634   -159.18835    423.15105    23.555964    22.207847    6.4620741    429.61313    5402.8896   -23716.315 
  497900   -95916.328   -84285.239    282.48672    20721    220847.32   -85.134694   -298.45965    197.35467    -154.2991    422.84258    23.537153    22.190112    6.6163106    429.45889    5408.1797   -23739.829 
  498000   -95935.854    -84337.22    281.69852    20721    221104.72    112.43048    77.600333    72.941377    186.74973    422.74614    23.553551    22.205572    6.6645321    429.41067    5417.7432    -23700.24 
  498100   -95973.947   -84380.938    281.56189    20721    221158.98    132.73918    165.95648   -28.870746    261.13181    422.70032    23.557718      22.2095    6.6874375    429.38776    5442.6038   -23681.875 
  498200     -95956.2   -84338.989    282.14969    20721    220955.32   -27.084194   -97.938274    -54.23133    70.917021    422.71895     23.54635    22.198783    6.6781243    429.39708    5446.4517   -23729.012 
  498300   -95961.819    -84335.69    282.36627    20721    221196.67   -60.902209    188.88176   -100.79056   -270.79783    423.00303    23.551294    22.203444    6.5360859    429.53911     5446.349   -23726.679 
  498400   -95876.532   -84309.276    280.93642    20721    221215.85    16.299438    86.496576    209.11878   -246.71705    422.88921    23.555484    22.207394    6.5929968     429.4822    5436.9778   -23748.816 
  498500   -95979.005   -84302.001    283.60189    20721    221187.34     30.13481    112.84198    158.37482   -180.81236    423.05988    23.549214    22.201483    6.5076579    429.56754    5440.9051   -23762.028 
  498600   -95885.159   -84286.312    281.70368    20721    221387.19    100.47889    68.516329    279.83161   -46.911268    423.14585    23.557457    22.209255    6.4646728    429.61053    5445.6722   -23778.762 
  498700    -95812.78   -84278.505     280.1354    20721    221013.42   -79.957088   -189.80946    147.91318   -197.97498    423.13833    23.537772    22.190696    6.4684358    429.60676    5443.8244   -23791.259 
  498800   -95882.264   -84314.083    280.95887    20721    221000.07   -51.767708   -45.335153     75.69143    -185.6594     422.9864    23.541288     22.19401    6.5444003     429.5308    5460.6528   -23776.223 
  498900   -95892.476   -84335.961    280.67556    20721    221073.86    100.03462    111.23177    175.84734    13.024754    423.54409    23.529711    22.183096    6.2655553    429.80964    5462.0621   -23762.797 
  499000   -96003.408   -84339.924    283.27352    20721     220944.3   -142.53318   -114.61504   -344.00901    31.024525    423.69509    23.518624    22.172643    6.1900558    429.88514    5473.0514   -23763.542 
  499100   -95760.697   -84314.694    277.99151    20721    221024.66     115.9227    78.899036    83.970697    184.89836       423.54    23.527207    22.180735    6.2676019     429.8076    5461.4606   -23789.121 
  499200   -95847.111   -84293.362    280.60838    20721    220866.22   -20.523591   -10.191126   -389.90074    338.52109    423.55046    23.518482     22.17251    6.2623716    429.81283    5468.6265   -23819.453 
  499300   -95792.622     -84300.7    279.10677    20721    220914.07    17.168977    28.106874    124.46629   -101.06623    423.48338    23.522892    22.176668    6.2959085    429.77929    5438.2308   -23781.389 
  499400   -95884.268   -84337.274     280.4443    20721    220929.41    123.07417     180.8979    193.04211   -4.7174888     423.6589    23.518835    22.172843    6.2081481    429.86705    5457.8486    -23770.87 
  499500   -95986.285   -84383.072     281.8097    20721    221146.17   -51.499808   -98.257123   -218.59512    162.35282    423.87446    23.524386    22.178076      6.10037    429.97483    5461.8368   -23715.338 
  499600   -95959.512   -84361.628     281.6803    20721    221510.91   -57.590222   -73.971498   -257.82815    159.02898    423.88002    23.543624    22.196213    6.0975889    429.97761     5471.627   -23733.436 
  499700    -95808.11   -84326.624    278.85329    20721    221414.54    34.593683   -96.840926    134.57991    66.042068    423.82274    23.540092    22.192883    6.1262298    429.94897    5467.7646   -23773.284 
  499800   -95910.918   -84297.058    282.06831    20721    221134.56   -12.500131   -73.764037    131.80586    -95.54222    423.99514    23.520421    22.174338    6.0400294    430.03517    5449.5852   -23794.914 
  499900   -95897.046   -84271.613    282.34936    20721     221254.8   -48.151117    113.28319   -106.12683   -151.60971    424.17717    23.521766    22.175606    5.9490143    430.12619    5476.6959   -23842.133 
  500000   -95822.911   -84261.071    280.80487    20721    221234.93    4.7363799    -85.09392   -123.67765    222.98071    424.22304    23.519438    22.173411    5.9260811    430.14912    5470.3694    -23850.07 
Loop time of 52967.5 on 32 procs for 500000 steps with 20721 atoms

Performance: 1.631 ns/day, 14.713 hours/ns, 9.440 timesteps/s
97.2% CPU use with 32 MPI tasks x no OpenMP threads

MPI task timing breakdown:
Section |  min time  |  avg time  |  max time  |%varavg| %total
---------------------------------------------------------------
Pair    | 6323.1     | 9022.1     | 12993      |2520.1 | 17.03
Bond    | 0.36401    | 0.46554    | 0.65367    |   8.5 |  0.00
Kspace  | 8647.8     | 12637      | 15352      |2143.5 | 23.86
Neigh   | 8507.8     | 10817      | 12574      |1570.6 | 20.42
Comm    | 471.76     | 3812.8     | 7986.7     |4370.2 |  7.20
Output  | 4.0926     | 47.993     | 75.665     | 363.2 |  0.09
Modify  | 13139      | 16588      | 22069      |2437.8 | 31.32
Other   |            | 42.04      |            |       |  0.08

Nlocal:    647.531 ave 701 max 600 min
Histogram: 2 3 2 12 2 2 1 3 1 4
Nghost:    7372.38 ave 7841 max 7018 min
Histogram: 4 7 5 2 3 0 0 5 1 5
Neighs:    238070 ave 275305 max 213127 min
Histogram: 2 6 13 0 0 1 3 2 2 3
FullNghs:  476141 ave 548609 max 426602 min
Histogram: 2 6 12 1 0 1 3 2 1 4

Total # of neighbors = 15236503
Ave neighs/atom = 735.317
Ave special neighs/atom = 2
Neighbor list builds = 500000
Dangerous builds not checked
write_data production.R1
PPPM initialization ...
  extracting TIP4P info from pair style
WARNING: Using 12-bit tables for long-range coulomb (../kspace.cpp:316)
  G vector (1/distance) = 0.345878
  grid = 400 48 48
  stencil order = 5
  estimated absolute RMS force accuracy = 0.000402574
  estimated relative force accuracy = 1.21234e-06
  using double precision FFTs
  3d grid and FFT values/proc = 67260 38400
write_restart restartproduction.R1
PPPM initialization ...
  extracting TIP4P info from pair style
WARNING: Using 12-bit tables for long-range coulomb (../kspace.cpp:316)
  G vector (1/distance) = 0.345878
  grid = 400 48 48
  stencil order = 5
  estimated absolute RMS force accuracy = 0.000402574
  estimated relative force accuracy = 1.21234e-06
  using double precision FFTs
  3d grid and FFT values/proc = 67260 38400
Total wall time: 14:42:48
