LAMMPS (30 Jul 2016)
# Sets up LAMMPS simulation for transient melting of ice: TIP4P/Ice
# Ensure cold thermostats do not move
# Thinbox: 16x1x1
# Defects
# Order param l=2

#### setting MD parameters ####
units real
boundary p p p
atom_style full

# read ice box in restart file
#read_data ice-ih-restart.data
read_restart restart.state
  orthogonal box = (0.326042 0.0175937 0.0165868) to (435.749 23.5136 22.1679)
  32 by 1 by 1 MPI processor grid
  20736 atoms
  13824 bonds
  6912 angles
  2 = max # of 1-2 neighbors
  1 = max # of 1-3 neighbors
  1 = max # of 1-4 neighbors
  2 = max # of special neighbors

#replicate 16 boxes, 16x1x1


#### force field definition ####
pair_style      lj/cut/tip4p/long 2 1 1 1 0.1577 10.0
pair_modify	tail yes

kspace_style	pppm/tip4p 1.0e-6

bond_style	harmonic
angle_style	harmonic
dihedral_style	none
improper_style	none

bond_coeff	1 450.0 0.9572
angle_coeff	1 55.0 104.52


# reset pair coeff
pair_coeff	* * 0.0 0.0

#OO
pair_coeff	2 2 0.21085 3.1668
#OH
pair_coeff	* 1 0.0000 0.0000

neighbor        2.0 bin
neigh_modify    every 1 delay 1 check no

timestep	2.0
fix		constraints all shake 0.000001 20 0 b 1 a 1
  0 = # of size 2 clusters
  0 = # of size 3 clusters
  0 = # of size 4 clusters
  6912 = # of frozen angles

group water type 1 2
20736 atoms in group water

#*********** SIMULATION PARAMETER TO ADJUST ****************
#Box dimensions
variable lx equal lx
variable ly equal ly
variable lz equal lz

### Temperature of the hot and cold regions ####
variable thi equal 375
variable tlo equal 215
variable runpressure equal 0.986923
# Configuration equilibrated in density and temperature

# Define dx here

variable lx equal lx
variable ly equal ly
variable lz equal lz

variable xlo equal xlo
variable xhi equal xhi


variable dx equal 2.0

### ADD IN DEFECTS AT THE CENTRE OF THE HOT THERMOSTAT ###
variable x1 equal ${lx}/4.0
variable x1 equal 435.423115947735/4.0
variable y1 equal ${ly}/2.0
variable y1 equal 23.4960126739353/2.0
variable z1 equal ${lz}/2.0
variable z1 equal 22.1513264586984/2.0

region kill1 sphere ${x1} ${y1} ${z1} 3
region kill1 sphere 108.855778986934 ${y1} ${z1} 3
region kill1 sphere 108.855778986934 11.7480063369677 ${z1} 3
region kill1 sphere 108.855778986934 11.7480063369677 11.0756632293492 3
delete_atoms region kill1 compress no bond yes mol yes
Deleted 15 atoms, new total = 20721
Deleted 10 bonds, new total = 13814
Deleted 5 angles, new total = 6907




variable thip equal ${thi}*2.0/3.0
variable thip equal 375*2.0/3.0
variable tlop equal ${tlo}*2.0/3.0
variable tlop equal 215*2.0/3.0
variable cbl equal ${lx}*3.0/4.0-${dx}
variable cbl equal 435.423115947735*3.0/4.0-${dx}
variable cbl equal 435.423115947735*3.0/4.0-2
variable cbh equal ${lx}*3.0/4.0+${dx}
variable cbh equal 435.423115947735*3.0/4.0+${dx}
variable cbh equal 435.423115947735*3.0/4.0+2
variable hbl equal ${lx}*1.0/4.0-${dx}
variable hbl equal 435.423115947735*1.0/4.0-${dx}
variable hbl equal 435.423115947735*1.0/4.0-2
variable hbh equal ${lx}*1.0/4.0+${dx}
variable hbh equal 435.423115947735*1.0/4.0+${dx}
variable hbh equal 435.423115947735*1.0/4.0+2


#***************************************************
## EQUILIBRATION PERIOD - to reach the steady state ###
#run 0

#reset the timestep to start your production run
reset_timestep 0

# define a group to perform averages
#group s1 type 1
###*** SYSTEM THERMOSTATTING: HOT and COLD regions ***###

fix NVE all nve
fix PRESS all press/berendsen aniso ${runpressure} ${runpressure} 500000 couple yz
fix PRESS all press/berendsen aniso 0.986923 ${runpressure} 500000 couple yz
fix PRESS all press/berendsen aniso 0.986923 0.986923 500000 couple yz


### Apply THERMOSTATS ###

#set up the "hot region" in the middle of the box
region hot block ${hbl} ${hbh} 0 ${ly} 0 ${lz} units box
region hot block 106.855778986934 ${hbh} 0 ${ly} 0 ${lz} units box
region hot block 106.855778986934 110.855778986934 0 ${ly} 0 ${lz} units box
region hot block 106.855778986934 110.855778986934 0 23.4960126739353 0 ${lz} units box
region hot block 106.855778986934 110.855778986934 0 23.4960126739353 0 22.1513264586984 units box


#set up the "cold region" at the left end of the box
region cold block ${cbl} ${cbh} 0 ${ly} 0 ${lz} units box
region cold block 324.567336960801 ${cbh} 0 ${ly} 0 ${lz} units box
region cold block 324.567336960801 328.567336960801 0 ${ly} 0 ${lz} units box
region cold block 324.567336960801 328.567336960801 0 23.4960126739353 0 ${lz} units box
region cold block 324.567336960801 328.567336960801 0 23.4960126739353 0 22.1513264586984 units box

#set up the "cold region" at the right end of the box
#region cold2 block ${h2bl} ${xhi} 0 ${ly} 0 ${lz} units box


#Cold regions  unification
#region cold union 2 cold1 cold2 units box

#Create group of cold molecules
####group cool_ice region cold
####group cool_ice include molecule

####compute cold_temp cool_ice temp
####fix cold_rescale water temp/rescale 1 ${tlo} ${tlo} 0.0001 1.0
####fix_modify cold_rescale temp cold_temp

#this calculates the temperature using only the atoms in the "hot region"
#compute hot_temp all temp/region hot

# calculate the temperature using only WATER in the "hot region"
compute hot_temp water temp/region hot

#this calculates the temperature using only WATER in the "cold region"
compute cold_temp water temp/region cold


#set up a basic velocity rescale for the hot region WATER with thip
fix hot_rescale water temp/rescale 1 ${thip} ${thip} 1.0 1.0
fix hot_rescale water temp/rescale 1 250 ${thip} 1.0 1.0
fix hot_rescale water temp/rescale 1 250 250 1.0 1.0
#change the thermostat to only act on the "hot region"
#this is done by passing it the "hot temp" compute that we defined above
fix_modify hot_rescale temp hot_temp

#set up a basic velocity rescale for the cold region
fix cold_rescale water temp/rescale 1 ${tlop} ${tlop} 1.0 1.0
fix cold_rescale water temp/rescale 1 143.333333333333 ${tlop} 1.0 1.0
fix cold_rescale water temp/rescale 1 143.333333333333 143.333333333333 1.0 1.0
#change the thermostat to only act on the "cold region"
#this is done by passing it the "cold temp" compute that we defined above
fix_modify cold_rescale temp cold_temp

### Ensure MOMENTUM CONSERVATION ###

#ensure that linear momentum is conserved despite the "thermostatting" by velocity rescaling
fix cons_mom all momentum 1 linear 1 1 1


thermo 100
thermo_style custom step pe etotal temp atoms vol press pxx pyy pzz lx ly lz xlo xhi f_cold_rescale f_hot_rescale

group ox type 2
6907 atoms in group ox
group hy type 1
13814 atoms in group hy
compute KE all ke/atom
variable TEMP atom c_KE*4186.8/(1.3806488*6.02214129)

compute cc1 all chunk/atom bin/1d x center 2 units box
#fix TPROFILE all ave/chunk 1 500 500 cc1 v_TEMP density/number file temp.dat
fix TPROFILEox ox ave/chunk 1 500 500 cc1 v_TEMP density/number file temp-ox.dat
fix TPROFILEhy hy ave/chunk 1 500 500 cc1 v_TEMP density/number file temp-hy.dat

compute orderparam ox orientorder/atom degrees 1 2 nnn 4 cutoff 3.5
compute cc2 ox chunk/atom bin/1d x center 2 units box
#fix ORDERPARAM all ave/chunk 1 500 500 cc2 c_orderparam[1] file order-param.dat
fix ORDERPARAM all ave/chunk 1 500 500 cc2 c_orderparam[1] file order-param.dat

restart 50000 config.restart

run 500000
PPPM initialization ...
  extracting TIP4P info from pair style
WARNING: Using 12-bit tables for long-range coulomb (../kspace.cpp:316)
  G vector (1/distance) = 0.345571
  grid = 405 48 48
  stencil order = 5
  estimated absolute RMS force accuracy = 0.000406503
  estimated relative force accuracy = 1.22417e-06
  using double precision FFTs
  3d grid and FFT values/proc = 67260 38880
Neighbor list info ...
  2 neighbor list requests
  update every 1 steps, delay 1 steps, check no
  max neighbors/atom: 2000, page size: 100000
  master list distance cutoff = 12.3154
  ghost atom cutoff = 12.3154
  binsize = 6.1577 -> bins = 71 4 4
Memory usage per processor = 12.7835 Mbytes
Step PotEng TotEng Temp Atoms Volume Press Pxx Pyy Pzz Lx Ly Lz Xlo Xhi cold_res hot_resc 
       0   -103844.26   -94961.787    215.73052    20721    226623.73   -246.55502   -405.06965   -148.86874   -185.72666    435.42312    23.496013    22.151326   0.32604203    435.74916            0            0 
     100   -103656.41   -94720.218    217.03515    20721    226151.97   -26.881035    123.17277    61.115136   -264.93101    434.97946    23.483511     22.13954   0.54786915    435.52733    2.7590964   -253.69122 
     200   -103663.69    -94664.58    218.56338    20721    226424.83   -37.446657   -179.28794    186.86695   -119.91898     435.0441    23.495928    22.151247   0.51555205    435.55965   -18.043558   -281.74811 
     300   -103625.19   -94604.724    219.08189    20721       226283    20.560426     3.591721   -250.65273    308.74229    435.15981    23.485445    22.141364   0.45769586     435.6175   -33.194507   -333.72841 
     400   -103540.62   -94581.355    217.59564    20721    226391.92    -22.99216    113.56395   -203.85811    21.317683    435.24301    23.488851    22.144575   0.41609266    435.65911   -13.812094   -371.40225 
     500   -103627.31   -94481.182    222.13395    20721    226368.86   -48.520333    -48.57439   -6.5789857   -90.407623    435.26497    23.487062    22.142888   0.40511414    435.67009   -24.726847   -461.36817 
     600    -103527.2   -94531.948    218.46967    20721    226314.23    80.475598    59.103577    84.728233    97.594983    435.09269    23.488877    22.144599   0.49125671    435.58394    11.371059   -455.97735 
     700   -103652.22    -94540.39    221.30103    20721    226376.65    -54.61452   -97.227887    228.93952    -295.5552    435.28742    23.486861    22.142699   0.39389201    435.68131    19.562691   -449.53374 
     800   -103504.68   -94456.854    219.74637    20721     226253.1   -37.060883    4.6476577    104.14525   -219.97556    435.11301    23.485156    22.141091    0.4810968     435.5941    6.3755717   -523.34103 
     900   -103505.68   -94429.929    220.42481    20721    226478.96   -13.037204    111.98772    32.213349   -183.31268    435.24401    23.493339    22.148806    0.4155969     435.6596    21.325563   -563.01493 
    1000   -103503.62   -94440.327    220.12209    20721    226362.78    -13.66633    28.629936   -191.39243     121.7635    435.17128    23.489275    22.144974    0.4519605    435.62324    31.359916   -565.07395 
    1100    -103486.5   -94352.198    221.84664    20721    226509.89     15.22372   -19.392179   -48.850228    113.91357     435.1742    23.496828    22.152095   0.45049888     435.6247    12.792769   -632.25676 
    1200   -103304.91   -94298.947     218.7297    20721     226361.1    74.212016    217.59832    110.89232   -105.85459    435.05596      23.4923    22.147827   0.50961753    435.56558    7.9456153    -686.5696 
    1300   -103471.13   -94335.164    221.88721    20721    226613.87    21.466078   -154.44429   -166.53062    385.37315    435.25864     23.49994    22.155029   0.40828192    435.66692    31.770402   -667.48999 
    1400    -103428.8   -94303.179    221.63594    20721    226377.97   -43.196766   -26.744172   -63.698314   -39.147811    435.05101     23.49331    22.148778   0.51209532     435.5631    6.6689432   -677.79133 
    1500    -103459.1   -94259.687    223.42805    20721    226525.33    9.8628535    47.833219    42.068257   -60.312915    435.20604    23.496769    22.152039   0.43458188    435.64062   -13.993443   -700.02185 
    1600    -103366.3    -94212.45    222.32155    20721    226314.44    77.877326    74.013364    238.91597   -79.297356    435.17453    23.486679    22.142527   0.45033415    435.62487   -7.3317861   -763.68827 
    1700   -103374.57   -94196.815    222.90217    20721    226539.54   -5.5180723   -59.327451    146.70694   -103.93371    435.42852    23.491502    22.147074   0.32334168    435.75186    8.8565634   -786.75497 
    1800   -103278.53   -94166.871    221.29688    20721       226342    52.532325   -16.820195    223.94835   -49.531178    434.99433    23.492974    22.148461   0.54043666    435.53476    10.912234   -826.69383 
    1900   -103294.94   -94180.163    221.37263    20721    226319.89    83.606812     227.9422    26.480995   -3.6027602    435.09365    23.489144    22.144851   0.49077258    435.58443    16.365985   -819.51304 
    2000   -103273.75   -94169.694     221.1121    20721    226471.56    43.816618    83.106002    110.64173   -62.297878    435.04509    23.498325    22.153507   0.51505573    435.56014    27.237629   -836.30418 
    2100   -103345.41   -94132.318    223.76031    20721    226361.97    13.626463    -9.549553   -94.399587    144.82853    435.15217    23.489749    22.145421   0.46151565    435.61368     12.12609   -862.02121 
    2200   -103227.75   -94100.938    221.66489    20721    226277.69    1.0138463    15.071439   -48.422803    36.392903    435.27596    23.482036    22.138149   0.39961895    435.67558    39.122703   -921.26427 
    2300   -103284.43   -94084.621     223.4377    20721       226353    1.2461912    46.846766   -247.71286    204.60467    435.05614    23.491876    22.147426   0.50953149    435.56567    22.582588   -923.54326 
    2400   -103367.09   -94066.959    225.87417    20721    226336.12    11.966252   -61.813874   -114.62314    212.33577    435.14798     23.48852    22.144263   0.46361235    435.61159    37.253524   -958.57453 
    2500    -103269.2   -94026.129    224.48833    20721    226480.08    37.586836   -97.724667    224.55643   -14.071259     435.2592    23.492987    22.148474   0.40800093     435.6672    19.493497   -977.97236 
    2600    -103251.3   -93971.177    225.38842    20721    226469.47   -48.249796   -119.46408   -14.674059   -10.611254    435.19757      23.4941    22.149523   0.43881522    435.63638    25.972809   -1037.1593 
    2700   -103250.05   -93984.919    225.02419    20721    226480.02    29.712017    160.60331   -11.345539   -60.121723    435.41122    23.488882    22.144604   0.33198755    435.74321    53.034223   -1053.6793 
    2800   -103128.43   -93958.892     222.7024    20721    226330.77   -37.095105   -14.293357   -93.015283   -3.9766763    435.44786    23.480154    22.136375   0.31367051    435.76153    54.963186   -1082.9223 
    2900   -103198.94   -93988.086    223.70597    20721    226424.44    95.080708    275.46428     300.9532   -291.17536     435.2227    23.491086    22.146682   0.42624834    435.64895    69.562525   -1073.7769 
    3000   -103257.59   -93998.444    224.87886    20721    226437.86   -119.76623   -180.96218   -146.76736   -31.569153    435.21945     23.49187    22.147421   0.42787332    435.64733    76.159837   -1063.3565 
    3100   -103275.15   -94011.632    224.98509    20721    226365.48   -49.831775   -27.135625   -46.772842   -75.586858    435.07658    23.491972    22.147517   0.49931157    435.57589    90.695371   -1068.3235 
    3200   -103173.54   -93928.165    224.54435    20721     226400.8   -18.920808   -94.261108    -81.57661    119.07529    435.31473    23.487377    22.143185    0.3802351    435.69496    78.992104   -1141.4131 
    3300   -103234.44   -93920.711     226.2045    20721    226324.66    7.0597389     11.04465    183.55755   -173.42299    435.22696    23.485794    22.141693   0.42412008    435.65108    61.242973   -1136.7574 
    3400   -103116.71   -93901.467    223.81267    20721    226387.11    19.925528    46.561643    49.302438   -36.087498    435.29657    23.487157    22.142977   0.38931595    435.68588    69.071197   -1162.2944 
    3500   -103145.38   -93830.668    226.22832    20721    226518.07   -83.581839   -157.51711    181.30751   -274.53592    435.32717    23.493123    22.148602   0.37401386    435.70119    36.099194   -1191.7158 
    3600   -103033.07   -93815.628    223.86602    20721    226318.01    81.671741    161.78883    139.29152   -56.065133    435.17851    23.486757      22.1426   0.44834291    435.62686    24.655752   -1210.1767 
    3700   -103079.11   -93803.582    225.27675    20721    226387.82   -1.0761631    125.51978   -246.66686    117.91859    435.29277    23.487296    22.143108   0.39121597    435.68398    29.206217   -1222.1959 
    3800   -103087.47   -93833.208    224.76034    20721    226410.05   -29.114266    168.76393    -98.91817   -157.18856    435.24469    23.489746    22.145419   0.41525396    435.65995     64.68997   -1226.6095 
    3900    -103104.9   -93769.104    226.74042    20721    226469.66    -23.65141    35.586079   -105.88887   -0.6514405    435.51316    23.485596    22.141506    0.2810178    435.79418    51.530806   -1276.2195 
    4000   -103119.48   -93724.068    228.18847    20721     226542.9   -18.241478   -131.11984   -90.684537    167.07994    435.39627    23.492546    22.148058   0.33946739    435.73573    27.605196   -1298.6009 
    4100   -103029.29    -93729.19     225.8736    20721    226398.27   -4.6621681    33.492469    -158.7496    111.27062    435.12769    23.492293    22.147819   0.47375485    435.60145    38.879789     -1308.88 
    4200   -103002.08   -93721.863    225.39071    20721    226461.93    118.88473    92.606308    138.59077    125.45711    435.17146    23.494414    22.149819   0.45186961    435.62333    10.747562   -1291.6566 
    4300   -102926.34   -93682.041    224.51825    20721    226422.39    18.512374    34.827139    -8.723316    29.433299    435.39814    23.486246    22.142119   0.33852951    435.73667    14.369507   -1333.0388 
    4400    -102964.7    -93679.82    225.50381    20721    226446.43    26.966362    100.27327   -92.022185    72.648004     435.3467    23.488881    22.144603    0.3642502    435.71095    18.380535   -1341.5385 
    4500   -103087.48   -93668.223    228.76744    20721    226724.73    7.6917885    52.866905   -14.533005   -15.258534    435.47812    23.499763    22.154863   0.29854108    435.77666     27.76931   -1356.0909 
    4600   -103021.27   -93663.112    227.28368    20721    226400.45     27.41873    70.942952    14.476605   -3.1633679    435.28836     23.48807    22.143838   0.39341853    435.68178    1.9092692   -1345.9318 
    4700   -103069.13   -93644.365    228.90117    20721    226496.07   -43.316828   -58.376388    27.150461   -98.724557    435.26432    23.493678    22.149126   0.40543988    435.66976  -0.28407018   -1355.9881 
    4800    -102995.7   -93622.138    227.65759    20721    226438.22    -58.65853   -85.007974   -63.221155   -27.746461    435.27598    23.490363       22.146   0.39960948    435.67559   -15.821816   -1365.2345 
    4900   -103002.12   -93624.548    227.75498    20721    226356.51   -4.4201312   -13.995169    68.693524   -67.958749    435.19855    23.488213    22.143974   0.43832334    435.63688    5.9148767   -1389.9409 
    5000   -102979.62   -93596.092    227.89974    20721     226487.6   -26.070746    25.149453    52.832491   -156.19418    435.24644    23.493722    22.149167    0.4143814    435.66082    11.070526   -1419.5387 
    5100   -103000.55   -93559.326    229.30102    20721    226449.45    4.4049476    56.657289    -43.44657 0.0041239121    435.38576    23.487984    22.143757   0.34471753    435.73048   0.08871693   -1448.7442 
    5200   -102998.65   -93537.384    229.78773    20721    226413.46   -78.352974   -79.883358    163.71246   -318.88802     435.3278    23.487681    22.143471   0.37369948     435.7015    12.336268   -1481.9096 
    5300   -103043.89   -93534.387    230.95943    20721    226379.72   -7.1516763   -99.788283   -51.089292    129.42255    435.06617    23.492992    22.148478   0.50451659    435.57068    4.3408875   -1483.0779 
    5400   -102957.68   -93512.421    229.39899    20721     226358.7   -14.732022    98.323372   -46.660321   -95.859115    435.20685    23.488103     22.14387   0.43417582    435.64102    8.5817181   -1507.5123 
    5500   -102965.59    -93544.45    228.81322    20721    226435.69    -44.96825   -195.12936   -164.59825    224.82286    435.41037    23.486606    22.142458   0.33241723    435.74278    16.825062   -1481.4873 
    5600   -102938.07   -93562.892    227.69707    20721    226388.55   -7.4436874   -19.733258    262.27748   -264.87528    435.24869    23.488523    22.144265   0.41325299    435.66195    22.581392   -1474.2122 
    5700   -102795.48   -93448.682    227.00761    20721    226357.83     22.87867    57.926462   -304.70466    315.41421     435.0807    23.491463    22.147037   0.49724806    435.57795   -2.1921964   -1565.0901 
    5800   -102925.48   -93460.454    229.87915    20721     226215.2   -40.359965   -53.924696   -234.65055    167.49535     434.9458    23.487702    22.143491   0.56469776     435.5105    8.7739581    -1565.532 
    5900   -102846.93   -93470.901    227.71768    20721    226242.07    10.688883   -96.666041    192.94148   -64.208794    435.05464    23.486159    22.142037   0.51028135    435.56492    9.6581903   -1559.5381 
    6000   -102818.27   -93427.084    228.08564    20721    226320.12    2.9010266    155.34704   -33.269046   -113.37492    435.17725      23.4869    22.142735    0.4489738    435.62623    5.9811804   -1598.9684 
    6100   -102858.19   -93406.564     229.5536    20721    226356.95     14.65775   -24.904468   -145.97693    214.85464    435.25832    23.486624    22.142475   0.40843954    435.66676   0.83636624   -1614.2813 
    6200   -102821.22   -93400.038    228.81435    20721    226383.52     7.622359    26.308934   -339.93564    336.49378    434.98161    23.495472    22.150817   0.54679567     435.5284   -7.6511712   -1611.6324 
    6300   -102787.81   -93392.153    228.19444    20721    226347.14    19.728159   -33.132985   -99.008494    191.32595    435.10523    23.490246     22.14589   0.48498583    435.59021    16.534466   -1646.1636 
    6400   -102785.84   -93341.074    229.38693    20721    226421.92   -73.853869   -215.90846    310.47078   -316.12392    435.08723    23.494612    22.150006   0.49398462    435.58122   -8.8576563   -1667.3103 
    6500   -102778.83   -93322.641    229.66459    20721    226122.63   -17.109112    130.82373    180.19368   -362.34474    434.86088    23.485189    22.141122    0.6071598    435.46804    9.1337089   -1715.5415 
    6600   -102762.05   -93330.784    229.05907    20721    226298.48   -14.355015    -46.51782   -76.772699    80.225474    434.92537    23.492577    22.148087   0.57491327    435.50029    30.176939   -1724.0496 
    6700   -102638.03   -93239.264    228.26973    20721    226398.85    -24.89757   -6.1090378    52.535656   -121.11933    434.83367    23.500264    22.155335   0.62076473    435.45444    15.540738   -1797.4545 
    6800   -102814.85   -93237.768     232.6006    20721    226497.83     1.987287    298.10037    73.421832   -365.56034    435.00019    23.500901    22.155935   0.53750666    435.53769    16.449974   -1803.1135 
    6900   -102636.39   -93177.088       229.74    20721    226377.44   -6.7212367    10.731936    160.48702   -191.38267    435.03291    23.493771    22.149213   0.52114416    435.55406    21.218246   -1869.3095 
    7000   -102690.89   -93174.201    231.13382    20721    226333.58   -8.1901778   -155.23943   -5.1849709    135.85387    434.89468    23.495228    22.150587   0.59025916    435.48494    35.659033   -1889.0388 
    7100   -102708.47   -93174.157    231.56181    20721     226322.2   -37.981334   -36.815428   -47.929596   -29.198979    434.80772    23.496987    22.152245    0.6337391    435.44146    34.511486   -1887.9942 
    7200   -102632.28   -93173.124    229.73653    20721    226329.34    11.369443    16.757729    38.144528   -20.793928    435.02804    23.491406    22.146984   0.52357815    435.55162     33.20784   -1891.4085 
    7300   -102672.42   -93160.653    231.01432    20721    226338.52    50.839835   -186.52258    64.386915    274.65517     434.7323    23.499872    22.154965   0.67144814    435.40375    43.364292   -1918.5518 
    7400   -102657.64   -93126.287    231.48988    20721    226208.81   -10.263548    72.913357    170.50434   -274.20834    434.57169    23.497479    22.152708   0.75175557    435.32344    30.088811   -1940.1947 
    7500   -102599.06   -93114.123    230.36263    20721     226238.3   -19.996287    50.841893   -45.793112   -65.037641    434.89245    23.490342     22.14598   0.59137598    435.48382    34.590138   -1957.6026 
    7600   -102592.26   -93103.015    230.46736    20721    226543.02   -4.5632801    5.4394957   -68.925491    49.796155    435.03789    23.502227    22.157185   0.51865498    435.55655     41.02887   -1968.0373 
    7700   -102589.72   -93077.607    231.02284    20721    226491.43   -63.418768    6.4628875   -42.863003   -153.85619    435.27366    23.493186    22.148661   0.40077066    435.67443    39.847931    -1991.254 
    7800   -102581.34   -93077.759    230.81556    20721    226315.58   -26.182381    3.5509763    96.574481    -178.6726    434.77304     23.49758    22.152804   0.65107989    435.42412    49.392697   -2007.2112 
    7900   -102559.38   -93082.142    230.17567    20721    226435.03    81.347076    128.03889    195.28224   -79.279899     434.8032    23.502965    22.157881   0.63600143     435.4392    59.395062   -2016.3205 
    8000   -102540.89   -93038.634    230.78336    20721    226351.85    13.586221   -168.83438    83.062494    126.53055    434.78558    23.499124     22.15426   0.64480934    435.43039    41.557785   -2041.3225 
    8100   -102571.18   -93050.596    231.22842    20721    226373.08   -8.9981611    67.922871   -166.10343    71.186072    434.77886    23.500408     22.15547   0.64816847    435.42703    50.999362   -2039.5803 
    8200   -102517.54   -93062.394    229.63907    20721     226293.4     134.6371    192.92318    90.651312    120.33681    434.67581    23.499056    22.154196   0.69969525     435.3755    41.672467   -2026.9438 
    8300   -102558.36   -93049.985    230.93191    20721    226323.39   -12.386461   -90.606487   -78.628522    132.07563    434.80637    23.497085    22.152337   0.63441365    435.44079    27.409426   -2018.2363 
    8400   -102514.37    -92990.73    231.30256    20721    226194.94   -42.754821   -301.80211   -129.52751    303.06515    434.61029    23.495714    22.151045   0.73245491    435.34275    20.331057   -2074.6038 
    8500   -102502.95   -92969.837    231.53278    20721    226257.44    48.848621    257.15743    -373.0278    262.41624    434.76837    23.494688    22.150077   0.65341304    435.42179    17.527281   -2095.8845 
    8600   -102482.55   -92988.023     230.5955    20721    226103.13   -23.720054   -286.26722   -73.998411    289.10547    434.59934    23.491241    22.146828   0.73792819    435.33727    2.0704613   -2063.6867 
    8700   -102600.64   -92960.401    234.13444    20721     226114.1   -72.838905    32.196762   -39.526146   -211.18733    434.50415    23.494384    22.149791    0.7855247    435.28968    17.100844   -2107.8481 
    8800   -102457.59   -92958.824    230.69857    20721    226136.49    11.554601   -87.501618   -86.203704    208.36912    434.46127    23.496707    22.151981   0.80696649    435.26823   -1.8156742   -2091.9771 
    8900   -102534.85   -92961.907    232.49999    20721    226084.15   -20.135009    -246.9041    420.74037    -234.2413     434.3719    23.496405    22.151696   0.85164996    435.22355    27.231006   -2121.8746 
    9000   -102618.62    -92918.72    235.58364    20721     226120.8     1.751055   -29.041905   -27.397678    61.692748    434.37074    23.498341    22.153521   0.85223047    435.22297    18.015262   -2154.6096 
    9100   -102508.48   -92908.516     233.1564    20721    226011.88    37.470846    186.75283   -46.602751   -27.737544    434.48902    23.489482     22.14517   0.79309109    435.28211    10.611076   -2164.4536 
    9200   -102500.76   -92875.417    233.77279    20721    226122.19   -6.3451897   -128.80452    139.59944   -29.830493    434.56053    23.493281    22.148751   0.75733748    435.31786    5.8046563   -2188.2314 
    9300    -102360.6   -92880.183     230.2529    20721    226186.36    154.34773    224.59911  -0.27492504    238.71899    434.34541    23.502432    22.157378   0.86489417    435.21031    22.572768    -2205.986 
    9400   -102381.79   -92857.174     231.3263    20721    226258.24    68.763499   -110.93086    199.41582    117.80554    434.68301    23.497036    22.152291   0.69609665     435.3791    23.564119   -2225.3276 
    9500   -102437.85   -92839.331    233.12127    20721    226118.18   -69.425118    66.412944   -53.364304   -221.32399    434.34306    23.498953    22.154098   0.86607086    435.20913   -1.3963669   -2215.1617 
    9600   -102442.06   -92851.483    232.92836    20721    226104.04    15.888925    31.308008    128.99087    -112.6321    434.33797    23.498356    22.153536   0.86861701    435.20658    1.3720471   -2213.2467 
    9700   -102409.08   -92840.961    232.38298    20721     226084.4   -47.551849    53.657888   -80.217191   -116.09624    434.51668    23.492503    22.148017   0.77926025    435.29594   0.60705415   -2221.2845 
    9800   -102412.81   -92835.326    232.61039    20721    226179.15   -22.913147     100.7182    109.76902   -279.22666    434.41311    23.500226    22.155298   0.83104493    435.24416    11.877203   -2236.1525 
    9900   -102489.21    -92857.38    233.93024    20721    226066.13   -35.632472   -192.62908   -145.25209    230.98375    434.48212    23.492488    22.148003   0.79654036    435.27866   -1.7739999   -2206.0864 
   10000   -102483.76   -92825.269    234.57786    20721     226198.1    2.8684505   -76.839112   -74.470659    159.91512    434.55865    23.497274    22.152516    0.7582769    435.31692   -4.7190727   -2235.0233 
   10100    -102379.7   -92807.815    232.47432    20721    226030.73   -5.3986073    8.1804155   -116.34356    91.967324    434.37617    23.493513     22.14897   0.84951631    435.22568 -0.098505082   -2260.9362 
   10200   -102349.31   -92753.214    233.06255    20721       226266    80.384092   -84.550388    26.300001    299.40266    434.68637    23.497349    22.152586   0.69441649    435.38078   -9.7002266   -2305.1954 
   10300   -102379.14   -92758.642    233.65518    20721    226199.16    60.517828    42.061569    269.78722   -130.29531     434.7797    23.491355    22.146936   0.64774905    435.42745   -15.168497   -2295.4243 
   10400   -102333.62   -92766.031    232.37007    20721     226083.1    1.6461267   -147.69135    12.373136    140.25659    434.66381    23.488459    22.144205   0.70569605     435.3695   -14.480942   -2290.6061 
   10500   -102374.02   -92730.866    234.20535    20721    226122.99   -24.956261   -12.381035   -89.465137    26.977388     434.6954    23.489678    22.145354   0.68990215     435.3853   -3.4447954   -2334.7192 
   10600   -102346.16   -92711.506    233.99881    20721    226199.15    42.790668   -207.98211      379.764   -43.409893    434.68759    23.493844    22.149282   0.69380646    435.38139   -9.1998356   -2351.8945 
   10700   -102356.19   -92709.958    234.28013    20721    226246.62    45.044014   -149.22599    175.84624     108.5118    434.52354    23.500744    22.155787   0.77582998    435.29937   -1.2474091   -2360.5296 
   10800   -102387.68   -92703.891    235.19233    20721    226201.55   -50.930071   -25.632509   -68.369141   -58.788563    434.70516    23.493494    22.148952   0.68502072    435.39018   -20.982637   -2345.1989 
   10900   -102319.86   -92702.735    233.57324    20721    226152.83    15.186945   -52.959908   -22.277393    120.79813    434.64086    23.492701    22.148204    0.7171681    435.35803  -0.97725206   -2372.6188 
   11000   -102291.84   -92652.275    234.11823    20721    226149.43    36.769175    323.57194   -2.2265484   -211.03787    434.63491    23.492685     22.14819   0.72014709    435.35505   -16.465543   -2409.7423 
   11100   -102238.09   -92628.357    233.39364    20721    226199.26    85.024919    201.16739    109.80445   -55.897079    434.69674    23.493602    22.149054   0.68922904    435.38597   -33.131149   -2418.9019 
   11200   -102284.35   -92583.997    235.59464    20721    226179.56   -35.789892    -164.6608   -94.031112    151.32223    434.68896     23.49279    22.148288   0.69311874    435.38208   -42.753108   -2448.7845 
   11300   -102180.45   -92588.841    232.95338    20721    225987.97    50.722653     35.31853     219.8013   -102.95187    434.51462    23.487548    22.143346   0.78029238    435.29491   -23.453259   -2474.2057 
   11400   -102186.71   -92559.141    233.82675    20721    226081.24    2.3966804    71.024139    130.17027   -194.00437    434.62423    23.489432    22.145122   0.72548714    435.34971   -39.291732   -2481.9039 
   11500   -102338.06   -92585.845    236.85408    20721    226021.45   -54.930255   -138.74935   -61.088381    35.046964    434.38472      23.4928    22.148297   0.84524188    435.22996   -29.812355   -2467.5654 
   11600   -102372.02   -92597.152    237.40427    20721     226131.9   -56.852482   -14.537966   -292.98625    136.96678    434.38842    23.498439    22.153614   0.84339248    435.23181     -26.0381    -2457.234 
   11700   -102234.68   -92537.862    235.50872    20721    226072.76   -14.490242    -81.37073   -239.91765    277.81765     434.4258    23.494355    22.149764    0.8247017     435.2505   -13.764489   -2532.9683 
   11800   -102263.07   -92577.271    235.24105    20721    226160.79    11.953946    46.185807    -55.36863    45.044661      434.463    23.497923    22.153128    0.8061004     435.2691   -9.9015623   -2495.9537 
   11900   -102222.91   -92524.208    235.55433    20721     226235.2   -78.952433   -97.295588    105.39672   -244.95843    434.43402    23.502572     22.15751    0.8205915    435.25461   -25.514153   -2527.0531 
   12000   -102251.19   -92550.447    235.60397    20721    226301.86     84.21255    373.83139     63.04815   -184.24189    434.69177    23.499064    22.154203   0.69171672    435.38348   -25.837121   -2507.7228 
   12100   -102290.91   -92557.531    236.39673    20721    226078.18   -77.143667   -100.31152    -224.6068    93.487312    434.66965    23.488046    22.143815   0.70277333    435.37243   -24.658776   -2504.7376 
   12200   -102177.04    -92512.62    234.72187    20721    226176.06   -30.774196    -48.76396    229.90138   -273.46001    434.32714    23.502391     22.15734   0.87402764    435.20117   -34.192457   -2537.5054 
   12300   -102257.64   -92512.618    236.67939    20721    226239.54    58.347212   -74.515169    88.286868    161.26994    434.48875    23.501317    22.156327   0.79322418    435.28198   -12.300373   -2566.1515 
   12400   -102196.92   -92505.523     235.3771    20721     226148.5     8.959536    106.65711   -122.40323    42.624729    434.45255    23.497567    22.152792   0.81132319    435.26388   -30.600557   -2554.6156 
   12500   -102206.18   -92493.163    235.90222    20721    226157.17   -1.2830483   -70.167673   -2.2944609    68.612989    434.59772    23.494092    22.149516   0.73873872    435.33646   -16.632198   -2580.8053 
   12600   -102182.23   -92485.431    235.50826    20721     226157.9    -8.104893     40.58874   -12.068834   -52.834585    434.36131    23.500523    22.155579   0.85694446    435.21826   -2.1677173   -2601.4759 
   12700   -102207.02   -92479.973    236.24285    20721     226280.4     5.647827  -0.26348043    116.53275   -99.325791    434.59282    23.500625    22.155675   0.74118831    435.33401    10.203374    -2620.068 
   12800    -102133.3   -92463.684    234.84803    20721    226211.05     6.659521   0.60780332   -114.11326    133.48402    434.59632    23.496929     22.15219   0.73943764    435.33576    6.0175914   -2633.5465 
   12900   -102205.47   -92446.091    237.02821    20721    226360.46   -34.477175    43.717239    88.243084   -235.39185    434.71399    23.501506    22.156505   0.68060322     435.3946      12.0384   -2653.2051 
   13000   -102297.98   -92452.771    239.11257    20721    226303.63   -3.3508475   -44.609965    169.31127   -134.75384    434.50796    23.504126    22.158976   0.78362207    435.29158    12.713318   -2651.7787 
   13100   -102114.68   -92442.489    234.91044    20721    226245.18    45.962446   -26.131005   -63.884337    227.90268    434.73961    23.494828     22.15021   0.66779701     435.4074    -2.943846   -2650.8031 
   13200   -102160.33    -92426.96    236.39636    20721     226245.4   -27.124664   -145.74724   -154.64189    219.01514     434.5729    23.499346    22.154469   0.75115092    435.32405    8.0514762   -2674.9446 
   13300   -102075.09   -92402.344    234.92411    20721    226350.75     8.471056   -26.300266    222.13103   -170.41759    434.64116    23.502971    22.157886   0.71702187    435.35818    13.283791   -2704.9665 
   13400   -102062.37   -92387.941    234.96487    20721    226232.13     108.9899    173.31234     178.3935   -24.736154    434.83707    23.491518    22.147089   0.61906681    435.45613    23.177237   -2739.1512 
   13500   -102048.14    -92368.74    235.08555    20721    226400.62   -52.236258   -71.219722   -107.44191     21.95286    434.81216    23.500937    22.155969   0.63152018    435.44368    17.257451    -2740.823 
   13600   -102091.57   -92365.039    236.23023    20721     226237.1   -41.739037    67.753962    7.3542287    -200.3253    434.86739    23.490957     22.14656   0.60390297     435.4713    9.9778331   -2742.6914 
   13700   -102103.92    -92353.33    236.81476    20721    226234.31   -34.253447   -83.362737   -259.46865    240.07105    434.73902     23.49428    22.149693   0.66808903    435.40711     32.44445   -2778.5574 
   13800   -102118.51   -92388.524    236.31425    20721    226175.53   -46.086752    36.907186    217.13297   -392.30041    434.81454    23.489187    22.144892   0.63032953    435.44487    29.045056   -2743.0213 
   13900   -102082.04   -92386.535    235.47669    20721    226430.57    41.877848   -18.910857   -146.22833    290.77273     434.7595    23.503915    22.158777    0.6578513    435.41735    28.852731   -2742.0432 
   14000   -102012.66   -92392.348    233.65053    20721    226128.72    129.14601    131.02983    141.81529     114.5929    434.36078    23.499022    22.154163    0.8572118    435.21799    7.4749368    -2728.368 
   14100   -102028.59    -92338.86    235.33655    20721    226285.08   -5.8762593   -119.44332   -161.45839    263.27293    434.92741    23.491827     22.14738   0.57389702     435.5013    17.089049   -2781.6086 
   14200   -102086.61   -92332.002     236.9122    20721    226345.85    33.733569   -107.39271    51.366594    157.22683    434.72964    23.500324    22.155391   0.67277886    435.40242     15.38492   -2790.2426 
   14300   -102179.51   -92374.125    238.14554    20721    226145.57   -103.81692   -106.54303   -127.80702   -77.100709      434.518    23.495645     22.15098   0.77860212     435.2966    13.936933   -2747.0302 
   14400   -102101.67   -92348.786    236.87037    20721    226257.19    20.679142   -260.47386    104.40212    218.10916    434.74485     23.49531    22.150664   0.66517684    435.41002    17.954016   -2779.8828 
   14500   -102054.78   -92346.594    235.78479    20721    226315.75   -6.0029317    272.03214    13.846599   -303.88753    434.84168    23.495734    22.151064    0.6167588    435.45844    8.2792558   -2772.2481 
   14600   -102119.62   -92314.684    238.13467    20721    226255.95   -59.931007    1.8188653   -38.133169   -143.47872    434.68619    23.496831    22.152098   0.69450734    435.38069    17.843754   -2813.8008 
   14700   -101957.43   -92307.719    234.36452    20721    226168.14    43.002824   -270.33667    220.45283    178.89231    434.52702    23.496573    22.151855   0.77408804    435.30111    1.2123996   -2812.3487 
   14800   -102143.06   -92300.773    239.04168    20721    226205.01   -66.689567   -118.24185   -89.233732    7.4068851    434.34475    23.503419    22.158309   0.86522381    435.20998    27.565486   -2842.2498 
   14900    -102051.6   -92298.364    236.87885    20721     226147.8   -45.745736    95.176904    34.893415   -267.30753    434.46635    23.497158    22.152406   0.80442632    435.27077     20.39857   -2838.4812 
   15000   -101986.08    -92316.74    234.84142    20721    226019.73    60.442768   -57.621579    268.57833   -29.628444    434.30959    23.494742    22.150129   0.88280545    435.19239    3.6399468   -2817.0143 
   15100   -101986.68   -92239.044    236.74282    20721    226231.82    2.6789886    156.85443   -259.75166     110.9342    434.47027    23.501416    22.156421   0.80246645    435.27273    3.5282993   -2884.8944 
   15200   -102016.75    -92232.65    237.62848    20721    226265.44   -57.705441   -65.307644   -244.50965    136.70097    434.42378     23.50442    22.159253   0.82571227    435.24949     8.007197   -2893.3179 
   15300    -102011.8   -92210.177     238.0542    20721    226349.97    83.004004  -0.82174039    182.47668    67.357075    434.45727    23.507904    22.162537   0.80896696    435.26623    7.8292671    -2919.759 
   15400   -102021.81   -92208.297    238.34284    20721    226247.74   -20.729814    54.550117   -147.92106    31.181501     434.3765    23.504779    22.159592   0.84934962    435.22585    12.716077    -2928.632 
   15500   -102029.16   -92201.323    238.69076    20721    226385.91   -89.354527   -60.495378     -173.388   -34.180203    434.79429    23.500656    22.155704   0.64045293    435.43475    19.027794    -2935.584 
   15600   -101922.81   -92202.123    236.08828    20721    226358.43    47.766093     74.66736    40.867837    27.763081    434.93438    23.495445    22.150792   0.57041197    435.50479    7.3835019   -2928.8708 
   15700   -101952.36   -92195.035    236.97829    20721    226395.47    79.242785   -19.794807    141.77042    115.75274    434.82428    23.500342    22.155408   0.62546076    435.44974    4.5405136   -2936.1041 
   15800   -101866.35   -92144.994    236.10458    20721    226310.36   -33.844544   -14.855193   -64.232485   -22.445955    434.67003    23.500093    22.155173   0.70258585    435.37261    3.3877457   -2980.6983 
   15900    -101974.4   -92150.647    238.59165    20721    226333.45    35.407718    130.58296   -107.92611    83.566303    434.81102    23.497481    22.152711   0.63209202    435.44311   -8.3007208   -2970.7809 
   16000   -101869.44   -92109.126    237.05082    20721    226400.86    34.323976   -38.181405    260.05616   -118.90283     434.7407    23.502881    22.157801   0.66724841    435.40795   -9.7778927   -3009.2817 
   16100   -101974.13   -92083.337    240.21984    20721    226378.19   -24.239903   -86.863403    50.837828   -36.694135    434.76727    23.500986    22.156015   0.65396421    435.42124   -30.516016   -3013.4746 
   16200    -101892.1   -92087.464     238.1272    20721    226152.99   -38.268918    169.81587   -48.705348   -235.91728    434.58499    23.494219    22.149636   0.74510429     435.3301   -18.301264   -3027.0944 
   16300   -101900.48   -92069.639    238.76365    20721    226238.34   -19.934901   -39.144248    53.898901   -74.559357    434.53859    23.499907    22.154998   0.76830522    435.30689   -24.736321   -3038.3419 
   16400   -101904.36   -92091.933    238.31641    20721    226307.77    48.577676   -26.627974   -205.00425    377.36526    434.67104    23.499931    22.155021   0.70207828    435.37312   -25.524403   -3016.7104 
   16500   -101937.52   -92099.833    238.93002    20721    226308.61   -3.5736001   -142.57174    98.414301    33.436642    434.60315     23.50181    22.156792   0.73602562    435.33917   -12.700459    -3020.299 
   16600   -101841.81   -92072.656    237.26554    20721    226186.36    31.424126    65.535656    60.230495   -31.493772    434.55205    23.496843    22.152109    0.7615743    435.31363   -27.099592    -3039.242 
   16700   -101843.26   -92059.138    237.62899    20721    226179.77     35.05354   -6.9418827   -160.53417    272.63667    434.51193    23.497586     22.15281   0.78163617    435.29356    -28.98375   -3051.9658 
   16800    -101876.6   -92080.164    237.92808    20721    226060.81     4.380525   -39.652771    153.42313   -100.62879     434.3956    23.494551    22.149948   0.83980249     435.2354   -33.098847   -3030.8332 
   16900    -101859.2   -92049.958    238.23918    20721    226137.69   -27.209861   -55.397297    -179.9723    153.74002    434.45939     23.49682    22.152088   0.80790365     435.2673   -22.767826   -3067.3928 
   17000   -101893.54   -92023.935    239.70515    20721    226318.47   -12.242498   -91.862061    -31.15967    86.294237    434.44327    23.506646    22.161352   0.81596523    435.25923   -12.179387   -3100.7624 
   17100   -101982.51   -91989.236    242.70867    20721    226331.57   -92.730837   -174.36537    5.6042775   -109.43142    434.21751    23.513437    22.167754    0.9288436    435.14636   -11.452383   -3134.9907 
   17200   -101768.29   -91961.473    238.18029    20721    226111.44    69.235554   -200.29159    192.23344    215.76481    434.30895    23.499525    22.154638   0.88312355    435.19208   -34.802447   -3153.2082 
   17300   -101798.49   -91984.465    238.35538    20721    226280.89    105.75637    187.56832    -134.0402      263.741     434.3421    23.507432    22.162093   0.86655036    435.20865   -17.914676   -3144.4296 
   17400    -101812.4   -91956.512    239.37213    20721    226224.12    36.900277    143.32709    267.98134    -300.6076    434.23663    23.507337    22.162003   0.91928659    435.15591    -41.34699   -3149.3395 
   17500   -101833.25   -91933.219    240.44417    20721    226185.02    56.152372    3.8051162    207.86165   -43.209652    434.29443    23.503742    22.158613   0.89038546    435.18481   -47.547479   -3169.5474 
   17600   -101870.92   -92002.745    239.67042    20721    226229.72   -45.708002    -37.81432   -196.20427    96.894588    434.33886    23.504862    22.159669     0.868168    435.20703   -20.472432   -3121.6087 
   17700   -101808.65   -91972.485    238.89308    20721    226176.73    -28.93008    57.791782   -249.42759    104.84557    434.00949    23.511025     22.16548    1.0328533    435.04235   -5.0273609   -3170.3769 
   17800   -101855.09   -91938.747     240.8403    20721    226184.79   -52.328974   -48.802017    -243.3361    135.15119    434.19888    23.506315     22.16104   0.93815757    435.13704   -15.731898   -3192.8979 
   17900   -101837.42   -91944.734    240.26581    20721    226212.38    14.852607   -74.938461    93.447583    26.048699     434.2862    23.505386    22.160163   0.89450052     435.1807   -6.2402991   -3200.0594 
   18000   -101783.07   -91933.375    239.22168    20721    226226.36   -25.427867   -127.26286    13.491448    37.487811    434.23219    23.507574    22.162226   0.92150632    435.15369     4.832776   -3219.2908 
   18100   -101773.61   -91914.377    239.45318    20721    226216.12   -2.4080218    186.02318   -88.342873   -104.90438    434.30902    23.504963    22.159764   0.88308987    435.19211      10.2424   -3248.0927 
   18200   -101754.33   -91926.777    238.68384    20721    226140.67    44.606311    90.649749    145.79408    -102.6249    434.34368    23.500105    22.155185   0.86576188    435.20944  -0.15433488   -3229.8202 
   18300   -101818.43   -91880.064    241.37526    20721    226275.22   -40.667669   -156.47639   -52.654673    87.128053    434.35281    23.506848    22.161541   0.86119592      435.214  -0.23442391   -3270.6848 
   18400   -101815.58   -91893.092    240.98962    20721    226404.16   -36.304813   -134.41226    118.58638   -93.088557    434.43289    23.511377    22.165812    0.8211571    435.25404    12.084141   -3267.1633 
   18500   -101734.77   -91866.295    239.67783    20721    226215.42    102.91061    280.07202    152.11597   -123.45615    434.16529    23.508817    22.163398   0.95495519    435.12024    13.499411   -3310.1019 
   18600   -101724.37   -91856.181    239.67091    20721    226319.35    64.359741   -9.5352217     150.8776    51.736841    434.19292    23.513468    22.167783   0.94114127    435.13406   -6.0212831   -3294.5382 
   18700   -101772.48   -91824.159    241.61702    20721    226297.59   -6.6163642   -180.06635   -23.877956    184.09521    434.20452    23.512024    22.166421   0.93534118    435.13986     11.26349    -3343.996 
   18800   -101579.02   -91771.788    238.19037    20721    226270.54   -10.385926     130.4451   -5.6472459   -155.95563    434.15445    23.511974    22.166374   0.96037613    435.11482  -0.73282537   -3383.0906 
   18900   -101778.05   -91770.037    243.06676    20721    226212.91   -39.024075    49.137093   -31.451187   -134.75813    434.46352    23.500616    22.155667    0.8058414    435.26936    2.9601206   -3391.9083 
   19000   -101639.74   -91750.366    240.18528    20721    226221.15   -4.1544663   -171.75772     59.68227     99.61205    434.41156    23.502449    22.157395   0.83181771    435.24338     2.491716   -3413.9205 
   19100   -101641.04   -91764.718    239.86836    20721    226162.18   -158.89039   -113.99198   -260.94461   -101.73457    434.32663    23.501683    22.156673   0.87428285    435.20092   -8.9349581   -3382.9505 
   19200   -101665.92   -91766.625    240.42622    20721    226345.64    16.890892    9.3844525   -46.710697    87.998922    434.27662    23.512568    22.166934     0.899289    435.17591    3.0433587   -3398.6903 
   19300   -101712.44   -91746.595     242.0426    20721    226250.26    -52.64148   -304.38207    2.6234627    143.83416    434.23766    23.508668    22.163257   0.91876911    435.15643    2.8121312   -3417.7126 
   19400   -101655.15   -91757.696    240.38169    20721    226210.41   -1.0381116   -62.698131    154.57046   -94.986666    434.19259    23.507817    22.162456   0.94130488     435.1339    5.6698004   -3415.9068 
   19500   -101594.89   -91736.446    239.43401    20721    226160.52   -33.130644   -45.338077    26.679845   -80.733698    434.22523    23.504341    22.159178   0.92498293    435.15022   -35.231711   -3395.6448 
   19600    -101655.7   -91736.887    240.90026    20721    226261.65   -25.398365    262.02179    -286.3878   -51.829079    434.29691    23.507656    22.162303   0.88914468    435.18606     18.45002    -3447.834 
   19700    -101750.7   -91699.318    244.12014    20721    226175.88   -8.9876713    61.754476   -208.87426    120.15677    434.39406    23.500571    22.155624    0.8405725    435.23463    3.6023402   -3475.3529 
   19800   -101615.83   -91688.722     241.1017    20721    226089.38    3.5999938   -70.185808   -100.37793    181.36372    434.43417    23.494992    22.150364   0.82051314    435.25469   -4.8680622   -3482.0174 
   19900   -101625.76   -91691.503     241.2754    20721    226267.02    51.979826    91.356535    102.78142   -38.198478     434.5916    23.499963    22.155051   0.74180076     435.3334   -24.572784    -3457.146 
   20000   -101641.94   -91694.962    241.58431    20721     226110.1   -18.869945    2.9321299   -26.025716   -33.516249    434.43427    23.496066    22.151377   0.82046661    435.25473   -3.2118271   -3476.2498 
   20100   -101579.24   -91676.996    240.49786    20721     226234.5    28.787503    -168.2241   -55.660483     310.2471    434.72067    23.494785    22.150169   0.67726331    435.39794   -15.317415    -3481.778 
   20200   -101626.11   -91648.721    242.32306    20721    226152.14    34.600612   -31.977987   -78.847708    214.62753    434.54806    23.495173    22.150535    0.7635676    435.31163    -31.06688   -3498.0901 
   20300   -101619.62   -91606.352    243.19427    20721    226299.19   -92.958967   -81.089085     9.446628   -207.23444    434.61798    23.500921    22.155954   0.72861126    435.34659   -24.910996   -3537.1316 
   20400   -101495.71   -91596.546    240.42319    20721    226172.46    50.392499    109.67804    244.63006    -203.1306    434.34768    23.501648    22.156639    0.8637589    435.21144   -25.209428   -3555.5215 
   20500   -101459.34   -91566.612    240.26669    20721    226044.94    26.681746    57.879522    105.96164   -83.795924    434.55252    23.489484    22.145171    0.7613399    435.31386   -23.750857   -3593.5482 
   20600   -101429.85   -91558.033    239.75887    20721     226173.2    39.930483    50.526074   -218.65275    287.91812    434.43739     23.49926    22.154388   0.81890386     435.2563   -36.628023   -3585.9226 
   20700   -101570.39   -91603.103    242.07774    20721    226302.64    4.6986713   -241.22041   -49.760401    305.07682    434.69264    23.499081    22.154219   0.69127812    435.38392   -17.799597   -3557.1682 
   20800   -101547.31   -91607.834    241.40216    20721     226305.3   -46.347933   -27.241999   -109.66372    -2.138082    434.52194    23.503835    22.158701   0.77663193    435.29857   -27.039599   -3541.9396 
   20900   -101575.99   -91611.044    242.02069    20721    226294.04    63.470948    144.74716   -113.13991     158.8056    434.49363    23.504016    22.158871   0.79078424    435.28442    -7.457351   -3566.3058 
   21000   -101454.52   -91565.175    240.18468    20721    226208.92   -29.720779    25.130692    21.714677   -136.00771    434.28458     23.50525    22.160035   0.89531019    435.17989   -23.570754   -3592.6608 
   21100   -101548.58    -91577.64    242.16623    20721    226132.95    15.070752   -86.145571    338.83546   -207.47763    434.14881    23.504977    22.159778   0.96319313    435.11201   -24.371391   -3586.7363 
   21200   -101580.39   -91572.135     243.0725    20721    226021.87   -135.41122   -276.34342   -97.850502    -32.03973    434.06066    23.501589    22.156584    1.0072722    435.06793   -21.040139   -3592.1104 
   21300   -101542.23   -91600.864    241.44811    20721    226032.37    18.625337    259.23075   -350.09711    146.74237    434.16559    23.499295    22.154421   0.95480339     435.1204   -30.934586   -3562.0482 
   21400   -101522.95   -91575.656    241.59196    20721     226276.4    15.169502   -120.60193    275.46365   -109.35322    434.19032    23.511307    22.165746   0.94244153    435.13276   -37.666267   -3575.7621 
   21500   -101611.41   -91571.469    243.84227    20721    226148.69   -15.943775    -50.46835   -204.14239    206.77941    434.23335    23.503507    22.158392   0.92092449    435.15428   -34.546503   -3585.9935 
   21600   -101505.21   -91545.418    241.89548    20721    225980.18   -36.520953    42.107749    -69.18041   -82.490197    434.18232    23.496129    22.151437   0.94643851    435.12876   -49.948333   -3601.3282 
   21700   -101448.06   -91551.224    240.36652    20721    226108.26    76.852985    183.49332   -212.91628    259.98192    434.42323    23.496269    22.151568   0.82598518    435.24921   -64.575494   -3580.9613 
   21800    -101547.4   -91540.102    243.04941    20721    226063.14   -53.741001   -21.725369   -9.6962752   -129.80136    434.33045    23.496434    22.151724   0.87237635    435.20282   -45.921893   -3608.5849 
   21900   -101475.43   -91539.937    241.30533    20721    226030.41    14.397229    46.039427    148.87395   -151.72169    434.12784    23.500215    22.155288   0.97368159    435.10152   -48.692827   -3611.6678 
   22000   -101496.08   -91530.792    242.02898    20721    226207.31    19.191139    56.878581   -74.942897    75.637734     434.4922     23.49955    22.154661   0.79149876     435.2837    -42.96982   -3621.6227 
   22100   -101493.01   -91476.124    243.28235    20721    226198.89    8.9587996    78.369303   -213.43759    161.94469    434.38118    23.502115     22.15708   0.84700986    435.22819   -50.764883   -3672.5581 
   22200   -101494.26   -91471.215    243.43182    20721    226207.59    44.442194   -68.896151    124.43399    77.788747    434.15848    23.508594    22.163188   0.95836107    435.11684   -49.776037   -3679.3645 
   22300   -101417.41    -91477.88    241.40345    20721    226034.73   -12.863251     97.20261   -39.014093    -96.77827    434.22496    23.497811    22.153022   0.92512085    435.15008   -54.758491   -3667.9957 
   22400   -101413.74   -91489.749    241.02607    20721    226095.51   -36.035203   -159.27706   -189.52071    240.69216    434.24984    23.500297    22.155366   0.91268155    435.16252   -55.362138   -3654.3678 
   22500   -101518.29   -91433.288    244.93649    20721    226107.51    -18.78499    1.2986407   -67.914455    10.260846    434.41631    23.496417    22.151708   0.82944745    435.24575   -57.438464   -3712.7992 
   22600   -101434.54   -91437.635      242.797    20721    226122.21   -66.930182   -171.94075    29.286763   -58.136555    434.36418    23.498591    22.153757   0.85551048    435.21969   -50.329849   -3711.8009 
   22700   -101430.76   -91452.545      242.343    20721    226111.12   -59.436165    130.63955   0.30388563   -309.25193    434.42787    23.496293     22.15159   0.82366542    435.25153   -39.560116   -3711.4453 
   22800   -101411.98   -91442.664    242.12685    20721    225925.45    47.437333    14.598091    81.612468     46.10144    434.12637    23.494798    22.150181   0.97441302    435.10079   -43.455752   -3726.1957 
   22900   -101445.57   -91466.903    242.35407    20721    225942.46   -29.343469   -137.31245   -292.21641    341.49845    433.77519    23.505191     22.15998    1.1500028     434.9252    -48.58827   -3695.1565 
   23000   -101453.17    -91461.65    242.66628    20721    226140.49    50.079938    180.80131   -194.64413    164.08263    433.90555    23.511957    22.166358    1.0848271    434.99037   -36.964516   -3710.1157 
   23100   -101517.61   -91477.512    243.84606    20721    226001.61   -39.059836   -50.678425    12.200825   -78.701909    433.79765    23.507659    22.162306    1.1387758    434.93642   -44.510299   -3690.7849 
   23200   -101523.21   -91467.033    244.23646    20721       226085   -2.9649008     -39.4061    9.7461628    20.765235    433.93071     23.50839    22.162996    1.0722425    435.00296   -41.284193   -3703.7558 
   23300   -101422.79   -91408.289    243.22428    20721     226038.2    56.856724   -42.799361     16.36701    197.00252    433.90816    23.506568    22.161278    1.0835198    434.99168   -57.890026   -3753.4905 
   23400   -101383.93   -91391.985    242.67662    20721    225873.76    44.895646   -56.192476    3.9642294    186.91518    433.66596    23.504577    22.159401    1.2046218    434.87058   -60.258649   -3770.4498 
   23500   -101442.74   -91380.529    244.38309    20721     225948.1   -21.244035   -13.841863   -127.28881     77.39857    433.90328    23.502015    22.156985    1.0859595    434.98924   -74.692502   -3763.4118 
   23600   -101470.53   -91433.674    243.76726    20721    226021.63   0.32143523    265.76257    265.66211   -530.46038    433.99211    23.503433    22.158322    1.0415459    435.03365   -47.403151   -3739.5726 
   23700   -101446.68   -91404.135    243.90532    20721    225996.57   -94.174027   -166.06612   -183.29865    66.842692    433.98818    23.502236    22.157194    1.0435124    435.03169   -45.629987   -3767.0748 
   23800   -101345.48   -91414.318    241.20036    20721    226052.47    35.709124    148.03015   -6.4524027   -34.450379    433.99314    23.505008    22.159807    1.0410278    435.03417   -58.891894   -3749.1193 
   23900    -101416.1   -91408.726    243.05127    20721    225829.99   -9.4033175    12.687573   -273.09919    232.20166    433.96758    23.494131    22.149552    1.0538098    435.02139   -48.842063   -3770.6381 
   24000   -101371.65   -91345.159    243.51542    20721    225919.42    22.950023   -106.04182    346.30999    -171.4181    433.66473    23.506986    22.161672    1.2052372    434.86996   -61.757135   -3821.1171 
   24100    -101444.2   -91333.536    245.55984    20721    226061.72   -5.5784322   -7.5589766   -92.826018    83.649697    433.67188    23.514194    22.168468    1.2016607    434.87354   -69.598677   -3820.7718 
   24200   -101369.73   -91346.081    243.44648    20721    225980.33   -55.712662   -210.13152   -118.10026    161.09379     433.5319    23.513756    22.168054    1.2716485    434.80355   -69.325688   -3808.2282 
   24300   -101332.12   -91295.461    243.76245    20721    225952.58   -72.900605   -151.57648   -125.11481    57.989473    433.69759     23.50782    22.162458    1.1888067    434.88639   -87.951563   -3843.0665 
   24400   -101295.33   -91262.277      243.675    20721    225821.22    48.021415   -80.873476    286.29439    -61.35667    433.51255    23.506001    22.160743    1.2813266    434.79387   -83.820678   -3890.3874 
   24500   -101237.05   -91238.407    242.83911    20721    226075.12   -1.2925231     -26.9473    323.96443    -300.8947    433.43537    23.521306    22.175172    1.3199151    434.75528   -108.29543   -3881.7384 
   24600   -101266.88   -91191.715    244.69772    20721    225976.31   -61.691984   -120.61785   -136.49512    72.037021    433.47084    23.515203    22.169418    1.3021817    434.77302   -120.31705   -3918.3764 
   24700   -101302.53   -91221.644    244.83668    20721    225789.91    48.895911    76.358329    61.862665    8.4667385    433.49018    23.504978    22.159778      1.29251    434.78269    -109.9853   -3911.2947 
   24800   -101246.59   -91204.501    243.89437    20721    225996.61    13.090368     -67.1822   -48.133423    154.58673    433.68788    23.510374    22.164866    1.1936614    434.88154   -109.68671   -3919.4723 
   24900   -101371.72   -91216.639    246.63867    20721       226082   -27.528865    108.86719   -132.44039   -59.013391    433.50124    23.519876    22.173824    1.2869794    434.78822   -100.58409   -3916.0449 
   25000   -101364.65   -91245.124    245.77519    20721    225761.27   -27.699082    99.556372    23.119959   -205.77358    433.53376    23.502306     22.15726     1.270718    434.80448   -90.058711   -3907.7935 
   25100   -101270.29   -91191.944    244.77491    20721    225641.96    21.174727    42.781737   -103.00313    123.74557    433.51512      23.4966     22.15188    1.2800384    434.79516   -86.091313   -3970.8097 
   25200   -101286.67    -91220.94     244.4685    20721    225971.98    76.180502   -160.78305     200.0977    189.22685    433.66489    23.509716    22.164245    1.2051534    434.87005   -71.885115   -3951.5371 
   25300   -101284.03    -91197.34    244.97753    20721    225852.54    1.1915991   -11.722463    55.307967   -40.010707    433.52804    23.507211    22.161884    1.2735808    434.80162   -81.894728   -3966.0813 
   25400   -101301.21   -91198.126    245.37568    20721     225895.5   -17.459495    75.344788    72.920884   -200.64416     433.6781    23.505379    22.160157    1.1985511    434.87665   -71.868579   -3975.3801 
   25500   -101237.31   -91221.633    243.25276    20721    225752.88    29.566053     34.80294    250.83964   -196.94442    433.44267    23.504339    22.159176    1.3162655    434.75893   -91.232254   -3938.5883 
   25600   -101279.21   -91145.571    246.11777    20721    225702.74   -25.283721   -90.139216   -231.85007    246.13812    433.34061    23.504496    22.159324    1.3672969     434.7079   -83.691954   -4022.6443 
   25700   -101283.14   -91165.954    245.71814    20721    225731.24   -83.945883   -85.361599   -27.862644   -138.61341     433.2571    23.508245    22.162858    1.4090481    434.66615   -78.972348   -4003.1366 
   25800   -101306.54   -91208.222    245.26012    20721    225609.15    61.980664   -260.09341    260.43307    185.60233    433.32179    23.500132     22.15521     1.376706    434.69849   -57.486876    -3994.836 
   25900   -101278.35   -91188.719    245.04895    20721    225803.34    -48.44999   -134.47272    8.9512774    -19.82853    433.29283    23.511029    22.165484    1.3911836    434.68402   -61.157676   -4001.1578 
   26000   -101301.38   -91184.426    245.71258    20721    225779.21   -59.073483    63.075988    32.178164    -272.4746    433.21731    23.511822    22.166231    1.4289425    434.64626   -62.071535   -4006.8717 
   26100   -101251.43   -91179.957    244.60812    20721    225690.78   -4.5089706    6.1740219    99.654622   -119.35556    433.06146    23.511447    22.165877    1.5068694    434.56833   -61.574549   -4017.0672 
   26200   -101321.34   -91136.977     247.3497    20721    225856.62    12.214891    39.777746    31.032402   -34.165476    433.25426     23.51485    22.169086    1.4104722    434.66473   -63.592456   -4054.4308 
   26300   -101217.11   -91172.037    243.96695    20721    225865.45    48.570996     10.63892    77.570625    57.503443    433.39547    23.511478    22.165907    1.3398639    434.73534   -54.850015   -4028.7184 
   26400   -101244.33   -91151.251    245.13284    20721    226091.43    67.046904     205.3275    35.451413   -39.638203     433.6546    23.516208    22.170366    1.2102982     434.8649   -76.458977   -4024.4868 
   26500   -101151.06   -91128.917    243.41001    20721     225721.6   -74.199432   -289.16312    123.47774    -56.91292    433.28827    23.506897    22.161588    1.3934662    434.68173   -72.113691   -4056.2965 
   26600   -101180.07   -91116.023     244.4277    20721    225814.36    15.813592   -33.534008    357.73176   -276.75698    433.36409     23.50967    22.164202    1.3555538    434.71965   -68.369297   -4075.7827 
   26700   -101205.37   -91087.416    245.73682    20721    225914.41   -125.91024   -113.63594    16.337021    -280.4318    433.37019    23.514712    22.168956    1.3525069    434.72269   -71.161659   -4093.3419 
   26800   -101256.24   -91093.945    246.81377    20721    225799.52    14.031747    257.96409   -323.59266    107.72381    433.46752    23.506093     22.16083    1.3038412    434.77136   -72.710768   -4097.5932 
   26900   -101169.43   -91136.848    243.66339    20721    225577.78    42.198096   -65.975393    66.251576     126.3181    433.07452    23.505206    22.159994     1.500338    434.57486   -68.361884   -4068.3689 
   27000   -101232.15   -91093.585    246.23744    20721    225752.03   -48.483595   -28.141182    85.776281   -203.08588    433.14181    23.512456    22.166829     1.466693    434.60851    -74.00783   -4097.1174 
   27100   -101211.43   -91085.395    245.93307    20721    225746.53  -0.19938203    135.45945    333.66502   -469.72261    433.65181     23.49834     22.15352    1.2116972     434.8635   -60.190622   -4125.5651 
   27200   -101145.29   -91096.682    244.05265    20721    225621.97     -19.5426   -11.250109    35.117626   -82.495316    433.14838    23.505503    22.160274    1.4634077    434.61179   -58.821989   -4118.9598 
   27300   -101077.02   -91050.006     243.5282    20721    225580.91    96.206925    304.66703   -65.656552    49.610299    433.19395    23.502129    22.157092    1.4406262    434.63457   -70.168232   -4162.9115 
   27400   -101154.28   -91039.742    245.65406    20721    225755.29    7.8251147     8.054084    159.17126      -143.75     433.4564    23.504091    22.158943     1.309398     434.7658   -88.227622   -4147.1645 
   27500   -101119.66   -91040.377    244.79773    20721    225637.91   -86.329755   -100.25405   -126.51989   -32.215326    433.35017     23.50086    22.155897    1.3625148    434.71269   -97.803239   -4136.7928 
   27600   -101120.52   -91015.722    245.41739    20721    225962.49   -87.240989   -80.138495   -215.97453    34.390061    433.57669    23.511613    22.166034    1.2492525    434.82595   -90.579881   -4160.4511 
   27700   -101164.98   -91046.771    245.74303    20721    225811.28    50.648888    155.09919    64.942765   -68.095289    433.28161    23.511747    22.166161    1.3967941    434.67841   -87.819128    -4143.186 
   27800   -101151.53   -91065.635    244.95837    20721     225702.1   -23.068543   -111.12076    214.94916   -173.03403    433.33314    23.504665    22.159484    1.3710313    434.70417   -64.005286   -4149.8968 
   27900   -101219.17   -91026.666    247.54752    20721    225786.33    40.114928    44.629229    148.96354   -73.247981    433.21476    23.512262    22.166646    1.4302187    434.64498   -76.094257   -4178.2707 
   28000   -101138.82   -91019.712    245.76489    20721    225896.57   -40.304063    116.08739   -34.080153   -202.91942    433.36516     23.51392    22.168209    1.3550185    434.72018   -86.824667   -4168.1351 
   28100   -101178.18   -91015.875    246.81417    20721    225798.69   -67.889942   -135.96625   -56.204041   -11.499532     433.4294    23.507083    22.161763     1.322902     434.7523   -72.717357   -4188.3485 
   28200   -101201.22   -91032.509    246.96967    20721    225775.95   -43.669596     112.7824   -326.64778    82.856598    433.45125    23.505307    22.160089    1.3119759    434.76322    -71.88387   -4176.0953 
   28300   -101214.47   -91039.747    247.11565    20721    225784.51   -1.5147048    -33.19145   -108.98821    137.63554    433.59548    23.501842    22.156823    1.2398607    434.83534   -59.574594   -4186.2665 
   28400   -101168.72   -91047.105    245.82593    20721    225794.61   -10.631949    86.922371    26.509131   -145.32735    433.87007     23.49493    22.150306    1.1025628    434.97264   -30.876022   -4204.1907 
   28500   -101213.62   -91093.008     245.8015    20721     225733.3   -30.195724    61.405591   -114.10746   -37.885304    433.74765    23.495055    22.150423     1.163774    434.91143   -27.647426    -4165.731 
   28600   -101197.05   -91111.601    244.94746    20721    225767.64 -0.078495168    55.688821    23.440156   -79.364463    433.35792    23.507405    22.162067    1.3586409    434.71656   -17.796779   -4158.6142 
   28700   -101218.18   -91084.159     246.1272    20721    226050.86    -41.57482   -119.72253     117.2943   -122.29624    433.54681    23.517021    22.171132    1.2641962      434.811   -20.634807   -4174.9884 
   28800   -101103.83   -91091.163    243.17989    20721    225952.45    151.71563    106.02981    155.58705    193.53004    433.60015    23.510455    22.164942    1.2375266    434.83767   -35.665097   -4165.8122 
   28900   -101085.99   -91053.116    243.67047    20721    225836.02    24.163261    152.75125     35.60594   -115.86741    433.61605    23.503966    22.158824    1.2295772    434.84562   -52.482573   -4184.1038 
   29000    -101134.1   -91055.284    244.78635    20721    225791.36   -7.3430109   -58.292109   -356.67209    392.93516    433.70744    23.499165    22.154299    1.1838808    434.89132   -39.957642   -4197.3961 
   29100   -101212.41   -91013.791    247.69599    20721    225633.66    5.7983565    12.677274   -9.6489444     14.36674     433.5878    23.494198    22.149616    1.2437023     434.8315   -68.082902   -4216.4331 
   29200   -101090.29   -90999.356    245.08059    20721    225712.57   -45.876445   -60.538436   -103.96872    26.877817    433.61085    23.497682      22.1529    1.2321736    434.84303   -31.999408   -4264.7447 
   29300   -101086.45   -91041.672    243.95973    20721    225931.23    96.230874    57.826556    82.214028    148.65204      433.844    23.502743    22.157672    1.1156011     434.9596    -20.75272   -4235.0985 
   29400    -101134.5   -91044.607    245.05528    20721    225769.32    8.2270128   -4.5883349    9.0771865    20.192187    433.51343    23.503276    22.158174    1.2808842    434.79432   -22.848049   -4230.4198 
   29500   -101105.05   -90992.062    245.61636    20721    225775.76   -6.4772158    18.959391   -80.113396    41.722358    433.80655    23.495669    22.151002    1.1343229    434.94088   -30.547595   -4276.9491 
   29600   -101134.69   -91033.338    245.33365    20721    225730.66    34.526623   -77.246015    175.76641    5.0594701    433.59375    23.499087    22.154225    1.2407268    434.83447   -25.335988   -4244.7804 
   29700    -101025.4   -90956.508    244.54543    20721    225570.09    10.687527    100.67095   -263.54829    194.93992    433.35376    23.497231    22.152475    1.3607183    434.71448    -43.45511   -4306.9636 
   29800   -101057.03   -90913.961    246.34689    20721    225687.31   -24.440049    57.673117    -57.57629   -73.416973    433.67551    23.494615    22.150009    1.1998452    434.87535   -55.110729   -4334.6379 
   29900   -101101.96   -90944.587    246.69423    20721    225706.58   -18.264112    30.104596   -142.66318    57.766247    433.63691    23.496664    22.151941    1.2191472    434.85605   -32.604342   -4327.5066 
   30000   -100958.68   -90890.925    244.51765    20721    225707.03   -14.917535    112.50223   -99.249502   -58.005329    433.58646    23.498054    22.153251    1.2443694    434.83083   -26.524376   -4386.6985 
   30100   -101059.07   -90868.438    247.50197    20721    225812.46   -88.194843   -151.87217    122.50881   -235.22117    433.53559    23.504921    22.159724    1.2698054    434.80539   -38.757174   -4392.5505 
   30200    -101056.9   -90822.102    248.57468    20721    225856.15   -38.412237   -75.316692    240.56664   -280.48666    433.90692    23.497134    22.152383    1.0841399    434.99106   -44.302819   -4435.7852 
   30300   -101064.42   -90818.072    248.85527    20721    225701.54    7.7946037    12.388788   -22.883009    33.878032    433.63072    23.496569    22.151851     1.222241    434.85296   -50.580559   -4438.6508 
   30400   -100922.42   -90843.295    244.79394    20721     225555.5   -83.102555   -67.161814   -62.403825   -119.74203     433.6154    23.489382    22.145075    1.2299011     434.8453   -60.403373   -4406.6965 
   30500   -100961.24   -90856.463    245.41683    20721    225680.13    48.625249    12.648363   -103.93154    237.15893    433.50626    23.498827     22.15398    1.2844716    434.79073   -31.454968   -4426.5487 
   30600   -100995.52   -90878.918    245.70403    20721    225753.29   -37.548087   -58.281802   -363.21968    308.85722    433.54019    23.501716    22.156704    1.2675033     434.8077   -24.447332    -4405.824 
   30700   -101064.55   -90853.061    248.00863    20721    225736.56   -81.816536    84.322817    80.540925   -410.31335    433.25349     23.50862    22.163212    1.4108546    434.66435   -36.807353   -4421.7702 
   30800   -101032.56   -90864.046    246.96481    20721    225621.69    33.100216   -13.281727   -10.827576    123.40995    433.12625    23.506089    22.160827    1.4744752    434.60072    -32.32675   -4421.2025 
   30900   -100980.95   -90809.892    247.02657    20721    225702.72   -20.263409    28.396519    0.2448216   -89.431567    433.34409      23.5044    22.159234    1.3655567    434.70964   -52.143024    -4453.392 
   31000   -100965.51   -90809.545    246.66018    20721    225646.58    157.85492    84.837461    284.33566    104.39165    433.12458    23.507432    22.162092    1.4753086    434.59989   -58.872107   -4459.4942 
   31100   -100971.84   -90798.797    247.07486    20721    225737.81   -13.890659    80.226172   -185.86577    63.967616    433.39371    23.504881    22.159687     1.340743    434.73446   -55.108156   -4462.5325 
   31200   -101003.78   -90815.938    247.43428    20721    225451.44    66.668405    249.53311   -12.864992     -36.6629     433.3746    23.490485    22.146116    1.3502981     434.7249   -42.051225   -4472.7278 
   31300      -101046   -90824.788    248.24471    20721     225399.5   -12.505926    61.731517   0.24519824   -99.494492    432.82244    23.502757    22.157685    1.6263795    434.44882   -29.531815   -4477.0559 
   31400   -100998.06   -90817.104    247.26708    20721    225486.48  -0.66649587   -83.329139    30.666591     50.66306    433.04812    23.501165    22.156184    1.5135379    434.56166   -48.255007    -4463.799 
   31500   -101090.98   -90850.605    248.71013    20721    225605.17    31.494247   -94.231355    250.69886   -61.984766    432.93679    23.510371    22.164864    1.5692045      434.506   -5.5536847   -4474.7145 
   31600    -100938.5   -90786.364    246.56711    20721    225481.92    -8.942508    42.389577    63.738522   -132.95562    432.96949    23.503061    22.157972    1.5528561    434.52234   -30.770621   -4514.6123 
   31700   -101089.56   -90871.169     248.1763    20721    225510.68   -65.982777   -75.960683     218.8594   -340.84705    432.81253    23.508822    22.163402     1.631337    434.44386   -5.2206613   -4457.1315 
   31800   -100996.08   -90824.849    247.03082    20721    225491.14    67.388206    275.89208    42.528979   -116.25644    432.90048    23.505415    22.160191    1.5873578    434.48784   -22.202857   -4493.5969 
   31900   -101019.61   -90823.338    247.63907    20721    225376.13   -10.425546    23.149953    133.20477   -187.63136    432.89211    23.499647    22.154753    1.5915472    434.48365   -12.146414   -4504.5574 
   32000   -101051.36   -90850.643    247.74694    20721    225395.67    16.838808     13.25949   -171.77477     209.0317    432.91936    23.499926    22.155016    1.5779205    434.49728    14.698547   -4505.2045 
   32100   -100962.68   -90817.058    246.40894    20721    225517.29    -6.268499   -63.765475   -9.3988176    54.358796    432.97391    23.504785    22.159596    1.5506464    434.52455   -10.675173   -4510.2024 
   32200   -100943.84   -90805.788    246.22505    20721    225512.07   -28.806758   -1.7717892   -27.793925   -56.854561    433.13061    23.500261    22.155331    1.4722972     434.6029   -17.678782   -4513.5939 
   32300   -100968.92   -90829.411    246.26044    20721    225559.41   -52.311843   -126.98461     109.0086   -138.95951    433.02674    23.505545    22.160314    1.5242324    434.55097    13.305767   -4518.1069 
   32400   -100903.91   -90756.696    246.44755    20721    225751.67    106.17325    92.120693    263.90846   -37.509404    433.14227    23.512425    22.166799    1.4664641    434.60874   -14.385355   -4566.5735 
   32500   -100948.46   -90778.996    246.98795    20721    225468.44    22.354944    137.41824    123.15323   -193.50664    433.08068    23.499341    22.154465    1.4972583    434.57794   -8.3040437   -4556.8065 
   32600   -101005.37    -90811.47    247.58149    20721    225634.21    46.633508    119.57574    96.366705   -76.041924    433.14023    23.506362    22.161084     1.467487    434.60771   -27.331897   -4502.8482 
   32700    -100965.8   -90804.556    246.78841    20721    225521.55    10.500575   -39.999458    187.70857   -116.20739    432.76191    23.510763    22.165233    1.6566458    434.41855   -24.543306   -4514.7688 
   32800   -100928.82   -90759.583    246.98253    20721    225502.29    6.3491418    42.578925   -67.867519     44.33602    432.93857    23.504962    22.159763    1.5683145    434.50689   -25.065347   -4560.3313 
   32900   -100972.27   -90752.521    248.20918    20721       225421   -40.553489   -106.18547   -66.904641     51.42965     432.7497    23.505853    22.160603    1.6627482    434.41245   -33.497127   -4561.7845 
   33000   -100965.62   -90774.204    247.52104    20721    225561.09   -23.349655   -16.451607    95.751649   -149.34901    432.79195    23.512008    22.166406    1.6416243    434.43358   -16.576143   -4554.0966 
   33100   -101036.17   -90789.186    248.87062    20721    225294.36    6.3332025    62.044244   -263.71082    220.66618    432.59338    23.503495     22.15838    1.7409097    434.33429   -21.289462   -4545.4103 
   33200   -101005.82   -90756.215    248.93447    20721    225553.89    69.677165    225.56064    46.065292   -62.594433    433.03535    23.505024    22.159822    1.5199245    434.55528   -11.612574   -4584.9807 
   33300   -100960.13   -90759.652    247.74107    20721       225331    24.540838   -12.031666    111.30764   -25.653461    432.80292    23.499715    22.154817    1.6361413    434.43906   -19.622474   -4580.0198 
   33400   -100958.48   -90734.963    248.30066    20721    225662.29   -84.881845   -55.530807   -131.27594   -67.838785    433.01977    23.511095    22.165545     1.527715    434.54748   -3.1163185    -4606.791 
   33500   -100963.61   -90704.165    249.17325    20721    225545.83   -35.663949   -158.11212    59.033028   -7.9127526    432.88933    23.508568    22.163163    1.5929325    434.48227   -29.634846   -4617.9025 
[...]
  491800   -95809.726   -84250.024    280.75295    20721    221165.25    13.820329   -228.36791    107.99756    161.83133    423.71811    23.529741    22.183125    6.1785452    429.89665    5603.2341   -23849.101 
  491900   -95895.737   -84233.938     283.2326    20721    220966.01   -48.943726   -220.21051    194.67892   -121.29959    423.82885    23.516067    22.170233    6.1231753    429.95202    5614.9351   -23885.606 
  492000   -95789.395    -84220.77    280.96968    20721    220963.22   -20.733344   -60.900872    -58.74858    57.449421     423.8068    23.516531     22.17067    6.1342014      429.941    5613.8726    -23897.76 
  492100   -95811.091   -84256.242    280.63508    20721    220960.87    216.64136    223.34382    240.61716    185.96309    424.06328    23.509293    22.163847    6.0059621    430.06924    5631.9108   -23893.623 
  492200   -95851.313   -84238.961    282.03167    20721    221088.01   -42.499873    138.95779    36.116418   -302.57383     424.1415    23.513887    22.168178    5.9668476    430.10835    5622.4663    -23886.27 
  492300   -95836.354   -84265.477    281.02436    20721    220669.12   -19.958561   -26.672142    72.900312   -106.10385     423.7431    23.502642    22.157576    6.1660513    429.90915     5629.051   -23883.298 
  492400   -95915.789   -84267.354    282.90804    20721    221052.46    20.752511   -19.970602   -28.679188    110.90732    423.73074     23.52339    22.177137    6.1722293    429.90297    5648.3203   -23891.108 
  492500   -95772.862   -84257.928    279.66567    20721    220842.57   -4.3656471   -73.611399   -59.883676    120.39813    423.64695    23.514544    22.168797    6.2141233    429.86108    5649.5065   -23908.923 
  492600   -95895.734   -84292.137    281.81902    20721    221062.11   -83.096725   -19.702338   -400.04921    170.46137    423.49461     23.53046    22.183803    6.2902951     429.7849    5663.1409   -23880.179 
  492700   -95878.243   -84245.588    282.52478    20721    220653.55   -59.157932   -49.621566   -99.758081   -28.094149    423.32348    23.513458    22.167773    6.3758616    429.69934    5637.9776   -23919.501 
  492800   -95802.313   -84208.937     281.5708    20721    220998.95    129.50514    102.66291    233.11319    52.739326    423.42287    23.529091    22.182512    6.3261635    429.74904    5631.7355   -23946.316 
  492900   -95863.405   -84269.273    281.58916    20721    220980.99    10.307419    122.47639   -133.41523    41.861097    423.46595    23.526939    22.180483    6.3046245    429.77058    5668.8618   -23918.357 
  493000   -95966.635   -84295.949    283.44844    20721    221254.43   -84.844936    31.182417   -476.51877    190.80154    423.47691    23.541186    22.193914    6.2991464    429.77605    5677.5923   -23893.115 
  493100   -95814.884   -84276.537    280.23428    20721     221162.7   -5.6051559   -97.631985   -84.870928    165.68745    423.58371    23.533338    22.186515    6.2457428    429.82946    5674.4713   -23915.728 
  493200   -95803.883   -84253.665    280.52262    20721    221071.02   -70.714068   -256.24357   -153.20538    197.30675    423.42418    23.532892    22.186095    6.3255083    429.74969    5658.9289     -23923.7 
  493300    -95847.61   -84274.923    281.06831    20721    220724.22   -6.6299108   -151.10024    156.06329   -24.852775    423.41744    23.514613    22.168862    6.3288776    429.74632    5695.1998   -23957.074 
  493400    -95890.31   -84269.608    282.23445    20721    221068.55   -45.051888   -273.36629   -20.990608    159.20123    423.26353    23.537225    22.190181    6.4058327    429.66937    5691.2216   -23946.062 
  493500   -95975.371   -84330.639     282.8181    20721    220763.68    -56.50456   -74.042177    102.61119    -198.0827    422.97967    23.528881    22.182314    6.5477662    429.52743    5711.0235   -23917.203 
  493600   -96017.435   -84326.168    283.94828    20721    220795.28   -36.289075    87.653763   -214.26914    17.748151    423.16715    23.525352    22.178987    6.4540232    429.62118    5681.3102   -23896.485 
  493700   -95920.842   -84345.749    281.12674    20721     221078.5   -136.44516   -26.624968   -47.208833   -335.50169    423.29247    23.536951    22.189922    6.3913668    429.68383    5703.0081   -23883.821 
  493800   -95933.045   -84353.174    281.24278    20721    220730.25      -93.859   -91.775983   -189.63051  -0.17050445    423.20152    23.520932     22.17482    6.4368403    429.63836    5686.3478   -23872.809 
  493900   -95888.773   -84361.622    279.96238    20721    220962.74    142.27013    191.93485   -142.59978    377.47533    423.52835    23.524234    22.177933    6.2734235    429.80178    5708.0829   -23892.971 
  494000   -95910.518   -84335.294    281.12995    20721    220958.93   -58.970504   -109.43971   -87.527476    20.055672    423.42287    23.526961    22.180504    6.3261658    429.74903     5702.571   -23906.456 
  494100   -95919.735   -84308.865    281.99569    20721    220968.87   -21.515149    90.133837   -183.12237    28.443087    423.46144    23.526419    22.179993    6.3068807    429.76832    5703.6546    -23936.44 
  494200   -95812.288    -84234.53    281.19147    20721    220956.53    -35.64647   -204.74199   -67.426793    165.22937     423.3613    23.528544    22.181996    6.3569517    429.71825     5688.391   -23994.145 
  494300   -95921.679   -84270.568    282.97303    20721    220883.87    54.131546     44.93548    58.807073    58.652084    423.41416    23.523207    22.176965    6.3305224    429.74468    5697.4481   -23978.523 
  494400   -95852.499   -84293.036    280.74714    20721    220857.11   -59.551281   -152.97025    167.35144   -193.03503    423.24773    23.526406    22.179981    6.4137333    429.66147    5716.7678   -23970.153 
  494500   -95892.964    -84316.15    281.16856    20721    220875.02     121.7726    282.77594   -130.38367    212.92552    423.44886    23.521772    22.175612    6.3131702    429.76203    5705.2097   -23945.419 
  494600   -95765.392   -84304.043    278.36423    20721    220851.93    12.199179    150.45502   -182.98231    69.124826    423.34947    23.523303    22.177055    6.3628658    429.71233    5705.6246   -23955.654 
  494700   -95830.157   -84267.453    280.82586    20721    220800.74    5.0788166   -81.143556   -143.18746    239.56746    423.24304    23.523534    22.177272     6.416078    429.65912    5687.8914    -23976.05 
  494800   -96002.919    -84297.82    284.28423    20721    221184.07   -43.654332   -201.51912   -78.228031    148.78415    423.66483    23.532222    22.185463    6.2051855    429.87001    5691.2597   -23940.001 
  494900   -95882.471   -84258.838    282.30565    20721    221013.27   -98.703697   -99.000812    86.378026   -283.48831    423.89757    23.516675    22.170807    6.0888163    429.98638    5684.8051    -23975.85 
  495000   -95939.857   -84267.235    283.49547    20721    220924.07   -56.071418    199.48755   -210.44112   -157.26068    424.02596     23.50837    22.162976      6.02462    430.05058    5677.9311   -23966.794 
  495100   -95859.004   -84292.315    280.92263    20721    220865.41   -20.838432   -300.84612   -86.063766    324.39459    423.98745    23.506316     22.16104    6.0438742    430.03133    5678.3457   -23945.944 
  495200   -95908.475   -84286.843    282.25705    20721    220840.45    -69.44742   -45.631131   -307.56203     144.8509    423.98183    23.505143    22.159935    6.0466842    430.02852    5690.3486   -23965.394 
  495300    -95836.72   -84268.702     280.9549    20721    220834.68   -75.602353   -66.755661     83.99316   -244.04456    423.87777    23.507721    22.162365    6.0987156    429.97648    5677.6846   -23971.666 
  495400   -95906.747   -84296.427    281.98233    20721    220762.78   -1.6230003    16.901238   -142.89894     121.1287    424.15189    23.496298    22.151595    5.9616565    430.11354    5704.2026   -23978.603 
  495500   -95974.099   -84280.923    283.99467    20721    220765.78    68.532313    136.07264    101.64405   -32.119752    423.96936    23.501515    22.156514    6.0529185    430.02228    5703.2184   -23997.951 
  495600   -95880.387   -84263.188    282.14939    20721    220879.87    -63.17859   -251.28431    51.529048    10.219494    423.77638    23.512939    22.167284     6.149411    429.92579    5681.8712   -23984.796 
  495700   -95821.826   -84231.056    281.50749    20721    220747.92    4.4548036   -67.300628   -51.052373    131.71741    423.65938     23.50916    22.163721    6.2079107    429.86729    5673.3643   -24014.696 
  495800   -95862.498   -84203.453    283.16571    20721    220890.38    60.293877    92.962643    12.860808     75.05818    423.54258    23.519987    22.173929    6.2663113    429.80889    5690.8271    -24060.45 
  495900   -95813.496   -84226.815    281.40819    20721    220917.47    24.100415    71.237686    178.38202   -177.31846    423.48372    23.523064    22.176829    6.2957391    429.77946    5672.0673   -24016.642 
  496000    -95815.03   -84207.641    281.91112    20721    220905.66     29.16164    178.66215    205.58422   -296.76145      423.634    23.518262    22.172303    6.2205984     429.8546    5674.3611   -24040.328 
  496100   -95759.162   -84221.117    280.22696    20721    221101.36   -47.760293   -141.19634   -51.425205     49.34067    423.75655    23.525275    22.178914    6.1593255    429.91587    5689.0702   -24032.667 
  496200   -95805.272   -84218.492    281.41058    20721    221222.55   -3.7015845    171.99126    57.632543   -240.72856    423.84263    23.529332    22.182739    6.1162825    429.95892     5680.546   -24024.869 
  496300   -95916.682   -84232.695    283.77149    20721     221009.6     62.94942    131.82156   -78.091436    135.11814    423.74284    23.520774     22.17467    6.1661809    429.90902    5703.4664   -24048.472 
  496400   -95789.506   -84220.417    280.98093    20721    221312.52    31.438609    60.757316    -22.02329    55.581801     424.1111    23.526666    22.180225    5.9820497    430.09315    5706.6105   -24052.791 
  496500   -95758.707   -84207.113    280.55604    20721    221242.49   -67.352499   -157.93288   -236.83209    192.70747    424.00695    23.525832     22.17944    6.0341245    430.04108     5721.952   -24078.725 
  496600   -95861.718   -84244.221    282.15663    20721    221370.71   -84.400984   -87.746832   -275.34184    109.88572    424.00848    23.532606    22.185825    6.0333606    430.04184    5751.4114   -24069.151 
  496700   -95918.286   -84257.472    283.20866    20721    221526.78   -68.932456   -264.97665   -250.06413    308.24341    424.25162    23.534153    22.187284    5.9117889    430.16341    5733.6322   -24036.727 
  496800   -95844.263   -84231.587    282.03953    20721    221561.64    76.514838    134.15472   -92.521575    187.91137     424.3491    23.533301    22.186481    5.8630482    430.21215    5741.4592   -24075.203 
  496900   -95916.067   -84230.634    283.80661    20721    221602.53   -98.209558   -71.313523   -183.32553   -39.989619     424.4229    23.533427    22.186599    5.8261508    430.24905    5729.0529   -24054.356 
  497000   -95846.562   -84203.468     282.7783    20721    221647.87    -9.761678    155.42275    101.25639   -285.96417    424.55672    23.532125    22.185372    5.7592397    430.31596    5715.8265    -24071.45 
  497100   -95740.277   -84194.256    280.42068    20721    221551.07    50.806452     136.8022   -59.425912    75.043065    424.25826    23.535259    22.188327    5.9084695    430.16673    5731.3171   -24104.837 
  497200   -95817.279   -84224.009    281.56823    20721    221619.44   -84.129713    191.32451   -339.35486   -104.35879    424.74701    23.525344    22.178979     5.664097     430.4111    5749.2916   -24086.157 
  497300   -95906.898   -84191.295    284.53933    20721    221712.54   -5.5474762   -75.667194   -146.89441    205.91918     424.6432     23.53316    22.186348    5.7160012     430.3592    5743.3476   -24118.301 
  497400   -95934.832   -84179.182    285.51199    20721     221501.7    12.005706   -26.338856     117.0472   -54.691232    424.89088    23.515111    22.169332    5.5921597    430.48304    5732.8102   -24129.561 
  497500    -95857.58   -84189.613    283.38242    20721    221808.39   -69.196137   -140.67685    -22.48994   -44.421615    424.80388    23.533795    22.186946    5.6356591    430.43954    5721.2104   -24093.268 
  497600   -95945.088   -84273.985    283.45857    20721    221904.27  -0.99188498    5.1025238   -238.41101    230.33283     424.8967     23.53631    22.189317    5.5892506    430.48595      5752.16   -24044.003 
  497700   -95936.475   -84240.233    284.06914    20721    221789.39   -7.7718569   -87.900352    71.940863   -7.3560817    424.74133    23.534519    22.187629    5.6669326    430.40827    5729.7483   -24059.593 
  497800   -95878.279   -84211.037    283.36479    20721    221394.71    37.770846   -34.811549    228.54777   -80.423677    424.39006    23.523299    22.177051    5.8425675    430.23263    5732.3668   -24107.073 
  497900    -95857.19   -84190.364    283.35469    20721    221364.02   -72.578982    243.38917   -456.36652   -4.7595988    425.02837       23.504    22.158856    5.5234167    430.55178    5712.7676    -24107.46 
  498000   -95775.717   -84199.452    281.15521    20721    221505.33   -27.624698    -112.4338    158.50982   -128.95012    425.10806    23.509296     22.16385    5.4835699    430.59163    5708.4725   -24093.609 
  498100   -95860.016   -84194.811    283.31533    20721    221540.56   -117.10997   -79.326161   -146.52428   -125.47948    424.99844    23.514198    22.168471    5.5383778    430.53682     5707.657   -24095.655 
  498200   -95885.386     -84207.9    283.61359    20721     221778.4   -51.359069   -140.26579   -93.520805    79.709387    425.28048    23.519014    22.173012    5.3973618    430.67784     5726.392   -24095.935 
  498300   -95812.718   -84154.099    283.15537    20721    221488.96   -5.0809951   -22.756655    69.767109    -62.25344    425.07163    23.509435    22.163981    5.5017852    430.57341    5699.6999   -24134.323 
  498400   -95841.086   -84180.638    283.19979    20721     221533.6   -19.722137   -143.18428     -103.417    187.43487    424.67829     23.52269    22.176477    5.6984572    430.37674    5723.2661   -24132.057 
  498500   -95884.809   -84216.866    283.38182    20721     221662.6    128.25905   -18.115185    292.86814    110.02421    424.55442     23.53297    22.186169    5.7603888    430.31481    5697.6563   -24075.574 
  498600   -95846.143   -84110.315    285.03057    20721    221931.94   -8.0261807    58.446931   -111.85688    29.331402    424.62683    23.545256    22.197751    5.7241873    430.35101    5683.0116   -24154.538 
  498700   -95749.704   -84152.738    281.65799    20721    221614.63   -95.316275   -22.719333   -109.52795   -153.70154    424.36277    23.535737    22.188777    5.8562167    430.21898     5682.678   -24116.856 
  498800    -95775.34   -84132.512    282.77184    20721       221827    142.75827    294.73226     22.99097    110.55158    424.37657    23.546628    22.199045    5.8493171    430.22588    5698.9491   -24160.895 
  498900   -95813.032    -84197.19    282.11645    20721    221668.56   -5.9922143    134.88859     221.8434   -374.70864    424.48531    23.535202    22.188273    5.7949436    430.28026    5713.7951    -24111.44 
  499000   -95825.554   -84106.209    284.63022    20721     221940.8   -95.883114   -64.610333   -116.55062   -106.48839    424.59147    23.546705    22.199118    5.7418633    430.33334    5701.7934   -24177.302 
  499100   -95762.301   -84153.182    281.95314    20721    221791.51    -32.53044   -91.190568   -360.33412    353.93337    424.55541    23.539785    22.192593     5.759894    430.31531     5702.855   -24143.802 
  499200   -95747.718   -84111.117    282.62062    20721    221856.01    32.597707    56.871066   -52.068074    92.990129    424.72296    23.538563    22.191441    5.6761199    430.39908      5674.49   -24158.024 
  499300   -95838.443   -84144.752    284.00717    20721    221840.71   -24.849641    57.591973   -150.56881    18.427916    425.05514    23.528552    22.182004    5.5100286    430.56517    5685.9171   -24134.462 
  499400   -95866.667   -84150.472    284.55374    20721     221815.2    45.948431    219.67586    81.082067   -162.91263     425.3718     23.51844    22.172471    5.3517008     430.7235    5716.5263   -24165.447 
  499500   -95732.338    -84134.79    281.67211    20721    221844.76   -107.59684   -147.83317   -2.9389295   -172.01842    425.10049    23.527512    22.181023    5.4873537    430.58785    5726.6551   -24183.332 
  499600   -95894.276   -84131.479    285.68558    20721    221797.99    -28.24383   -74.430015    71.081167   -81.382643    424.75083    23.534712    22.187811    5.6621837    430.41302    5710.5905   -24178.849 
  499700    -95862.37   -84163.356    284.13646    20721    221835.58   -15.655461    275.18255   -146.73082   -175.41812    425.03659    23.528793    22.182231    5.5193045     430.5559    5734.4988   -24171.872 
  499800   -95734.817   -84185.106    280.51029    20721     221651.3    176.08544    140.47887    361.62081    26.156621    425.32313    23.511095    22.165546    5.3760327    430.69917    5718.6073   -24150.813 
  499900   -95817.735   -84198.048    282.20983    20721    221693.49    95.225461    182.27457    178.62908   -75.227268    425.22807     23.51596    22.170133     5.423565    430.65163    5701.0733   -24116.823 
  500000    -95814.91   -84233.724    281.27474    20721    221818.35   -10.689201   -21.679435   -96.613033    86.224866    425.47338      23.5158    22.169981    5.3009119    430.77429     5734.001   -24105.653 
Loop time of 71738.2 on 32 procs for 500000 steps with 20721 atoms

Performance: 1.204 ns/day, 19.927 hours/ns, 6.970 timesteps/s
97.4% CPU use with 32 MPI tasks x no OpenMP threads

MPI task timing breakdown:
Section |  min time  |  avg time  |  max time  |%varavg| %total
---------------------------------------------------------------
Pair    | 13544      | 14603      | 16542      | 835.4 | 20.36
Bond    | 0.8312     | 0.91717    | 1.2816     |   9.3 |  0.00
Kspace  | 13908      | 15850      | 16909      | 803.3 | 22.09
Neigh   | 10545      | 12642      | 14641      |1487.4 | 17.62
Comm    | 531.26     | 1818.8     | 4316.4     |2629.6 |  2.54
Output  | 7.3691     | 30.89      | 41.023     | 202.0 |  0.04
Modify  | 25444      | 26704      | 29622      | 852.6 | 37.22
Other   |            | 89.04      |            |       |  0.12

Nlocal:    647.531 ave 703 max 603 min
Histogram: 3 0 4 11 3 3 2 1 4 1
Nghost:    7339.03 ave 7807 max 6938 min
Histogram: 2 5 1 10 2 1 2 3 4 2
Neighs:    237372 ave 275521 max 214675 min
Histogram: 3 7 10 1 0 3 3 0 4 1
FullNghs:  474745 ave 548216 max 428093 min
Histogram: 3 4 13 1 0 3 1 2 4 1

Total # of neighbors = 15191826
Ave neighs/atom = 733.161
Ave special neighs/atom = 2
Neighbor list builds = 500000
Dangerous builds not checked
write_data production.R1
PPPM initialization ...
  extracting TIP4P info from pair style
WARNING: Using 12-bit tables for long-range coulomb (../kspace.cpp:316)
  G vector (1/distance) = 0.34581
  grid = 400 48 48
  stencil order = 5
  estimated absolute RMS force accuracy = 0.000404026
  estimated relative force accuracy = 1.21671e-06
  using double precision FFTs
  3d grid and FFT values/proc = 67260 38400
write_restart restartproduction.R1
PPPM initialization ...
  extracting TIP4P info from pair style
WARNING: Using 12-bit tables for long-range coulomb (../kspace.cpp:316)
  G vector (1/distance) = 0.34581
  grid = 400 48 48
  stencil order = 5
  estimated absolute RMS force accuracy = 0.000404026
  estimated relative force accuracy = 1.21671e-06
  using double precision FFTs
  3d grid and FFT values/proc = 67260 38400
Total wall time: 19:55:38
