LAMMPS (30 Jul 2016)
# Sets up LAMMPS simulation for transient melting of ice: TIP4P/Ice
# Ensure cold thermostats do not move
# Thinbox: 16x1x1
# Defects
# Order param l=2

#### setting MD parameters ####
units real
boundary p p p
atom_style full

# read ice box in restart file
#read_data ice-ih-restart.data
read_restart restart.state
  orthogonal box = (0.318089 0.0171645 0.0161822) to (435.757 23.514 22.1683)
  32 by 1 by 1 MPI processor grid
  20736 atoms
  13824 bonds
  6912 angles
  2 = max # of 1-2 neighbors
  1 = max # of 1-3 neighbors
  1 = max # of 1-4 neighbors
  2 = max # of special neighbors

#replicate 16 boxes, 16x1x1


#### force field definition ####
pair_style      lj/cut/tip4p/long 2 1 1 1 0.1577 10.0
pair_modify	tail yes

kspace_style	pppm/tip4p 1.0e-6

bond_style	harmonic
angle_style	harmonic
dihedral_style	none
improper_style	none

bond_coeff	1 450.0 0.9572
angle_coeff	1 55.0 104.52


# reset pair coeff
pair_coeff	* * 0.0 0.0

#OO
pair_coeff	2 2 0.21085 3.1668
#OH
pair_coeff	* 1 0.0000 0.0000

neighbor        2.0 bin
neigh_modify    every 1 delay 1 check no

timestep	2.0
fix		constraints all shake 0.000001 20 0 b 1 a 1
  0 = # of size 2 clusters
  0 = # of size 3 clusters
  0 = # of size 4 clusters
  6912 = # of frozen angles

group water type 1 2
20736 atoms in group water

#*********** SIMULATION PARAMETER TO ADJUST ****************
#Box dimensions
variable lx equal lx
variable ly equal ly
variable lz equal lz

### Temperature of the hot and cold regions ####
variable thi equal 375
variable tlo equal 215
variable runpressure equal 0.986923
# Configuration equilibrated in density and temperature

# Define dx here

variable lx equal lx
variable ly equal ly
variable lz equal lz

variable xlo equal xlo
variable xhi equal xhi


variable dx equal 2.0

### ADD IN DEFECTS AT THE CENTRE OF THE HOT THERMOSTAT ###
variable x1 equal ${lx}/4.0
variable x1 equal 435.439022426794/4.0
variable y1 equal ${ly}/2.0
variable y1 equal 23.4968710087824/2.0
variable z1 equal ${lz}/2.0
variable z1 equal 22.1521356706988/2.0

region kill1 sphere ${x1} ${y1} ${z1} 3
region kill1 sphere 108.859755606698 ${y1} ${z1} 3
region kill1 sphere 108.859755606698 11.7484355043912 ${z1} 3
region kill1 sphere 108.859755606698 11.7484355043912 11.0760678353494 3
delete_atoms region kill1 compress no bond yes mol yes
Deleted 9 atoms, new total = 20727
Deleted 6 bonds, new total = 13818
Deleted 3 angles, new total = 6909




variable thip equal ${thi}*2.0/3.0
variable thip equal 375*2.0/3.0
variable tlop equal ${tlo}*2.0/3.0
variable tlop equal 215*2.0/3.0
variable cbl equal ${lx}*3.0/4.0-${dx}
variable cbl equal 435.439022426794*3.0/4.0-${dx}
variable cbl equal 435.439022426794*3.0/4.0-2
variable cbh equal ${lx}*3.0/4.0+${dx}
variable cbh equal 435.439022426794*3.0/4.0+${dx}
variable cbh equal 435.439022426794*3.0/4.0+2
variable hbl equal ${lx}*1.0/4.0-${dx}
variable hbl equal 435.439022426794*1.0/4.0-${dx}
variable hbl equal 435.439022426794*1.0/4.0-2
variable hbh equal ${lx}*1.0/4.0+${dx}
variable hbh equal 435.439022426794*1.0/4.0+${dx}
variable hbh equal 435.439022426794*1.0/4.0+2


#***************************************************
## EQUILIBRATION PERIOD - to reach the steady state ###
#run 0

#reset the timestep to start your production run
reset_timestep 0

# define a group to perform averages
#group s1 type 1
###*** SYSTEM THERMOSTATTING: HOT and COLD regions ***###

fix NVE all nve
fix PRESS all press/berendsen aniso ${runpressure} ${runpressure} 500000 couple yz
fix PRESS all press/berendsen aniso 0.986923 ${runpressure} 500000 couple yz
fix PRESS all press/berendsen aniso 0.986923 0.986923 500000 couple yz


### Apply THERMOSTATS ###

#set up the "hot region" in the middle of the box
region hot block ${hbl} ${hbh} 0 ${ly} 0 ${lz} units box
region hot block 106.859755606698 ${hbh} 0 ${ly} 0 ${lz} units box
region hot block 106.859755606698 110.859755606698 0 ${ly} 0 ${lz} units box
region hot block 106.859755606698 110.859755606698 0 23.4968710087824 0 ${lz} units box
region hot block 106.859755606698 110.859755606698 0 23.4968710087824 0 22.1521356706988 units box


#set up the "cold region" at the left end of the box
region cold block ${cbl} ${cbh} 0 ${ly} 0 ${lz} units box
region cold block 324.579266820095 ${cbh} 0 ${ly} 0 ${lz} units box
region cold block 324.579266820095 328.579266820095 0 ${ly} 0 ${lz} units box
region cold block 324.579266820095 328.579266820095 0 23.4968710087824 0 ${lz} units box
region cold block 324.579266820095 328.579266820095 0 23.4968710087824 0 22.1521356706988 units box

#set up the "cold region" at the right end of the box
#region cold2 block ${h2bl} ${xhi} 0 ${ly} 0 ${lz} units box


#Cold regions  unification
#region cold union 2 cold1 cold2 units box

#Create group of cold molecules
####group cool_ice region cold
####group cool_ice include molecule

####compute cold_temp cool_ice temp
####fix cold_rescale water temp/rescale 1 ${tlo} ${tlo} 0.0001 1.0
####fix_modify cold_rescale temp cold_temp

#this calculates the temperature using only the atoms in the "hot region"
#compute hot_temp all temp/region hot

# calculate the temperature using only WATER in the "hot region"
compute hot_temp water temp/region hot

#this calculates the temperature using only WATER in the "cold region"
compute cold_temp water temp/region cold


#set up a basic velocity rescale for the hot region WATER with thip
fix hot_rescale water temp/rescale 1 ${thip} ${thip} 1.0 1.0
fix hot_rescale water temp/rescale 1 250 ${thip} 1.0 1.0
fix hot_rescale water temp/rescale 1 250 250 1.0 1.0
#change the thermostat to only act on the "hot region"
#this is done by passing it the "hot temp" compute that we defined above
fix_modify hot_rescale temp hot_temp

#set up a basic velocity rescale for the cold region
fix cold_rescale water temp/rescale 1 ${tlop} ${tlop} 1.0 1.0
fix cold_rescale water temp/rescale 1 143.333333333333 ${tlop} 1.0 1.0
fix cold_rescale water temp/rescale 1 143.333333333333 143.333333333333 1.0 1.0
#change the thermostat to only act on the "cold region"
#this is done by passing it the "cold temp" compute that we defined above
fix_modify cold_rescale temp cold_temp

### Ensure MOMENTUM CONSERVATION ###

#ensure that linear momentum is conserved despite the "thermostatting" by velocity rescaling
fix cons_mom all momentum 1 linear 1 1 1


thermo 100
thermo_style custom step pe etotal temp atoms vol press pxx pyy pzz lx ly lz xlo xhi f_cold_rescale f_hot_rescale

group ox type 2
6909 atoms in group ox
group hy type 1
13818 atoms in group hy
compute KE all ke/atom
variable TEMP atom c_KE*4186.8/(1.3806488*6.02214129)

compute cc1 all chunk/atom bin/1d x center 2 units box
#fix TPROFILE all ave/chunk 1 500 500 cc1 v_TEMP density/number file temp.dat
fix TPROFILEox ox ave/chunk 1 500 500 cc1 v_TEMP density/number file temp-ox.dat
fix TPROFILEhy hy ave/chunk 1 500 500 cc1 v_TEMP density/number file temp-hy.dat

compute orderparam ox orientorder/atom degrees 1 2 nnn 4 cutoff 3.5
compute cc2 ox chunk/atom bin/1d x center 2 units box
#fix ORDERPARAM all ave/chunk 1 500 500 cc2 c_orderparam[1] file order-param.dat
fix ORDERPARAM all ave/chunk 1 500 500 cc2 c_orderparam[1] file order-param.dat

restart 50000 config.restart

run 500000
PPPM initialization ...
  extracting TIP4P info from pair style
WARNING: Using 12-bit tables for long-range coulomb (../kspace.cpp:316)
  G vector (1/distance) = 0.345569
  grid = 405 48 48
  stencil order = 5
  estimated absolute RMS force accuracy = 0.000406602
  estimated relative force accuracy = 1.22447e-06
  using double precision FFTs
  3d grid and FFT values/proc = 67260 38880
Neighbor list info ...
  2 neighbor list requests
  update every 1 steps, delay 1 steps, check no
  max neighbors/atom: 2000, page size: 100000
  master list distance cutoff = 12.3154
  ghost atom cutoff = 12.3154
  binsize = 6.1577 -> bins = 71 4 4
Memory usage per processor = 12.765 Mbytes
Step PotEng TotEng Temp Atoms Volume Press Pxx Pyy Pzz Lx Ly Lz Xlo Xhi cold_res hot_resc 
       0   -103759.74   -94823.122    216.98276    20727    226648.57   -83.679653    -241.3211    17.200199   -26.918061    435.43902    23.496871    22.152136   0.31808879    435.75711            0            0 
     100   -103474.33   -94558.969    216.46667    20727    226424.09     -51.5278    12.150381    86.592352   -253.32613    435.28826    23.489299    22.144997   0.39346952    435.68173   -2.6483748   -264.66029 
     200   -103595.58   -94524.015    220.25925    20727    226670.43   -76.837766   -168.18075   -70.003254    7.6707057    435.38437    23.499479    22.154595   0.34541509    435.72978   -5.5320038   -292.10552 
     300   -103616.27   -94509.533    221.11318    20727    226447.53    43.178417    178.54084   -67.272617    18.267028    435.09322    23.495779    22.151106   0.49098987    435.58421   -9.9532488   -314.37357 
     400    -103603.1   -94482.617    221.44701    20727    226464.17   -2.2331425   -189.64303    72.401325    110.54228    435.24161    23.492637    22.148144    0.4167962     435.6584    14.423268   -363.87724 
     500   -103545.29   -94425.771    221.42354    20727    226652.14   -74.906894   -31.164436   -14.458657   -179.09759    435.17361     23.50422    22.159065   0.45079655     435.6244   -21.672374     -377.521 
     600   -103424.68   -94404.579     219.0098    20727    226575.47   -27.863826   -83.122605    61.390552   -61.859425    435.25468    23.498056    22.153253    0.4102591    435.66494   -4.7038947   -420.34523 
     700   -103413.07   -94334.553    220.42806    20727     226704.8   -49.247284   -173.36915   -127.73236    153.35965    435.24152    23.505117     22.15991    0.4168399    435.65836   -7.9500239   -483.13496 
     800   -103406.86    -94347.18    219.97067    20727    226529.23     120.5344    36.119935    183.63953    141.84375    435.29514    23.494566    22.149963   0.39003021    435.68517  -0.95444913   -491.31401 
     900   -103447.35   -94292.595      222.279    20727    226566.82    -58.08673   -71.509919   -7.6547519   -95.095521    435.25182    23.497685    22.152903   0.41168828    435.66351    10.890569   -548.71757 
    1000   -103298.09   -94245.523    219.79797    20727    226585.75    69.938581     174.1542   -13.249874    48.911418    435.32186    23.496776    22.152046   0.37666965    435.69853   -10.062265   -580.10075 
    1100   -103365.25   -94180.883    222.99814    20727    226720.52    5.3761341    110.96403    18.517616   -113.35325    435.38079    23.502172    22.157133   0.34720315      435.728    -2.044361   -646.92705 
    1200   -103316.27   -94145.766    222.66144    20727    226626.33    52.194217   -57.412196     132.9315     81.06335    435.29029    23.499732    22.154833   0.39245586    435.68274    19.570584     -709.281 
    1300   -103345.94   -94119.446    224.02084    20727    226655.28    -40.23677   -122.42049   -34.106792    35.816976    435.43762    23.497257    22.152499   0.31878884    435.75641   0.71821882   -712.01085 
    1400    -103392.2   -94093.898    225.76435    20727    226797.58   -20.193608    68.858606   -13.856629    -115.5828    435.59708    23.500329    22.155396   0.23905754    435.83614    2.1600673   -738.48611 
    1500   -103274.99    -94098.39    222.80945    20727    226558.52    28.194186    163.80629    209.70069   -288.92442    435.28142    23.496455    22.151744   0.39688828    435.67831    -14.13413   -725.20935 
    1600   -103369.25   -94064.098    225.93076    20727    226610.29   -36.069402   -192.43525    30.543224    53.683818     435.3812    23.496447    22.151736   0.34700193     435.7282   -15.765395   -754.59423 
    1700   -103264.75    -94045.04    223.85636    20727    226614.22   -58.951434   -125.84742   -21.803111    -29.20377    435.35899     23.49725    22.152493   0.35810705    435.71709    12.077468   -800.24667 
    1800   -103319.62   -94037.791    225.36444    20727     226611.7   -16.104777   -59.698841   -15.318249     26.70276    435.25175    23.500014    22.155099   0.41172395    435.66348   -2.1270341   -796.35058 
    1900   -103298.76   -94021.114    225.26302    20727    226601.55    -27.65208     87.12023    -152.8311   -17.245369    435.30816    23.497965    22.153167   0.38351863    435.69168    16.212889   -833.17266 
    2000   -103292.67   -94010.283    225.37808    20727    226855.88   -66.512934   -91.330441   -149.08793    40.879572    435.53689    23.504973    22.159774   0.26915365    435.80605     36.04842   -854.82842 
    2100   -103174.47   -93998.316     222.7987    20727    226660.52    17.676766    50.465991    255.21073   -252.64642    435.27791    23.501839    22.156819   0.39864576    435.67655    14.784466   -853.32591 
    2200   -103181.25   -93963.894    223.79907    20727    226679.69    -18.29428   -107.73097   -168.93292    221.78106    435.15331    23.506197    22.160928   0.46094464    435.61426    13.906541   -887.07451 
    2300   -103217.86    -93903.09     226.1643    20727    226678.04   -49.363698    12.358386   -109.36933   -51.080149    435.33498    23.501206    22.156223   0.37010769    435.70509  -0.50448631   -934.59256 
    2400   -103225.01   -93862.424     227.3252    20727    226772.84    23.840943    14.291177    77.380206   -20.148555    435.39479    23.504506    22.159334   0.34020694    435.73499   -5.9906119   -971.86713 
    2500   -103189.88   -93875.549    226.15371    20727    226714.42    9.4398413   -134.33289    19.209775    143.44264    435.42699    23.500609    22.155659   0.32410408     435.7511   -6.4122712   -959.83466 
    2600   -103244.76   -93828.239    228.63487    20727    226795.47   -41.101887   -103.21592   -203.58053    183.49079    435.35673    23.506706    22.161408   0.35923736    435.71596   -8.7306753   -1001.3785 
    2700   -103085.82   -93831.447    224.69778    20727    226751.54    44.178046   -8.4501889    318.04145   -177.05712    435.34867    23.504647    22.159466   0.36326492    435.71194   -6.4621123   -1004.0892 
    2800   -103191.12   -93827.539    227.34952    20727    226829.55   -3.7005371   -90.631076    146.33577   -66.806305    435.46499    23.505549    22.160317   0.30510635    435.77009   -11.240352   -1000.8182 
    2900   -103187.22   -93798.069    227.97039    20727    226811.34    38.681036    70.744092    6.4471615    38.851855    435.26594     23.50998    22.164494   0.40462965    435.67057   -30.495724   -1014.8242 
    3000   -103102.81   -93772.646    226.53806    20727     226799.3   -15.714746   -63.351506    -160.2629    176.47017    435.47811    23.503628    22.158506   0.29854576    435.77665   -12.480667   -1056.6399 
    3100   -103130.04   -93742.324    227.93556    20727    226624.43   -45.523155    33.896257   -55.645343   -114.82038    435.27919    23.499933    22.155023   0.39800532    435.67719   -8.5063515   -1093.3826 
    3200   -103131.85    -93752.07    227.74276    20727    226922.42    15.556113   -140.53608   -61.827535    249.03195    435.59098    23.506961    22.161648   0.24211169    435.83309   -16.440572   -1072.9067 
    3300   -103038.09   -93745.375    225.62887    20727    226732.12    77.353875    29.748655   -97.072268    299.38524    435.29253    23.505156    22.159946   0.39133492    435.68387   -20.425662   -1084.7202 
    3400   -103079.69   -93767.305    226.10646    20727    226783.16    62.049002    72.332585    70.566261    43.248158    435.38935    23.505187    22.159976    0.3429271    435.73227   -9.6935575   -1074.6073 
    3500    -103151.6   -93765.471    227.89692    20727    226756.86   -32.513711    33.171287    56.729229   -187.44165    435.55917    23.499242    22.154371   0.25801297    435.81719    1.9852439   -1084.5887 
    3600   -103064.21   -93707.541     227.1816    20727    226829.54    46.237156     15.02329    187.51622   -63.828048    435.47711    23.505222    22.160008    0.2990441    435.77616   -6.8813135   -1134.0165 
    3700    -103183.3   -93712.063    229.96345    20727    226654.33   -18.274881    18.140715    353.94931   -426.91467    435.37507    23.498895    22.154044   0.35006663    435.72513   -10.768542   -1130.5205 
    3800   -103025.03   -93675.429       227.01    20727    226792.44   -13.945112    50.165875    12.361572   -104.36278     435.4284    23.504614    22.159435   0.32339954     435.7518   -10.726953   -1163.8678 
    3900   -103046.97   -93663.529    227.83159    20727       226618    14.844967    18.814451    91.975118   -66.254668    435.11662    23.503989    22.158846   0.47928752    435.59591   -3.9906564   -1188.6949 
    4000   -103085.75   -93617.943    229.88012    20727     226715.2  -0.90018664    106.27493    35.382573   -144.35806    435.42993     23.50057    22.155623   0.32263407    435.75257   -17.862016   -1219.1854 
    4100   -103116.29   -93675.025    229.23555    20727    226701.95   -34.750523   -38.728485    107.95211    -173.4752    435.41659    23.500243    22.155315   0.32930415     435.7459     21.64941   -1201.7306 
    4200   -103100.01   -93640.264    229.68424    20727    226666.62    43.450655    143.82448    -50.13211    36.659594    435.37759    23.499464    22.154581    0.3488038     435.7264   -1.8256491   -1218.4485 
    4300   -102995.75   -93618.203    227.68853    20727    226598.35    -16.54277   -88.223113   -114.56111    153.15591    435.30271    23.497946    22.153149    0.3862474    435.68895   -8.4833216    -1235.435 
    4400   -103094.19   -93633.959    229.69616    20727    226768.88    -1.994643   -37.636822   -177.63527    209.28817    435.37621    23.504802    22.159612   0.34949385    435.72571    28.073206   -1251.8642 
    4500   -103126.71   -93613.714    230.97722    20727       226694   -48.505331   -190.67955   -108.28667    153.45022    435.25316    23.504242    22.159085   0.41101905    435.66418    19.720152   -1265.3143 
    4600   -102941.62   -93564.283    227.68348    20727    226731.62     20.54034    5.2729664   -49.757538    106.10559    435.44405     23.50104    22.156066   0.31557287    435.75963    14.992982   -1312.3062 
    4700   -102906.11   -93517.573    227.95531    20727    226963.94    32.929112    87.839006   -103.60685    114.55518    435.59258    23.509068    22.163634   0.24130832    435.83389   -3.1743907   -1334.2489 
    4800   -102998.32    -93525.21    230.00871    20727    226697.81   -33.507082    4.8458253    22.937105   -128.30418    435.61631    23.494641    22.150033   0.22944556    435.84575    4.4165526   -1339.5139 
    4900   -102862.32   -93478.023    227.85254    20727     226982.2    97.818184     54.31636    157.34897    81.789225    435.64288    23.508656    22.163246   0.21616001    435.85904    18.801219    -1400.726 
    5000   -102975.22   -93504.172    229.95885    20727    226963.29   -66.403084     -127.636    141.83204   -213.40529    435.75896    23.504546    22.159371   0.15812216    435.91708  0.065688853   -1351.1657 
    5100   -102895.12   -93469.086    228.86577    20727    226835.17    23.352164   -115.16577    89.240333     95.98193    435.39344    23.507772    22.162413   0.34088144    435.73432   -19.461901   -1376.5356 
    5200   -103068.48   -93449.452    233.55182    20727     226913.3   -167.22715   -99.553081   -334.31857   -67.809794    435.68141    23.504049    22.158902   0.19689671     435.8783   -24.008127   -1381.2869 
    5300   -103000.06   -93486.381    230.99394    20727    226819.32   -54.160112    118.58936   -335.47603    54.406333    435.54033    23.502987    22.157901   0.26743541    435.80776   -22.159675   -1355.1859 
    5400   -102980.23   -93465.996    231.00736    20727     226860.8    39.846551   -31.322328    4.3563608    146.50562    435.57961    23.504076    22.158928   0.24779484    435.82741   -16.982379   -1384.7433 
    5500   -102956.88   -93421.424    231.52273    20727    226733.13   -27.376294    101.36345   -38.389558   -145.10277    435.54217    23.498471    22.153644   0.26651675    435.80868   -14.593424   -1431.9541 
    5600   -102977.89   -93396.931    232.62738    20727    226816.85   -44.184963    100.85494   -89.577243   -143.83259    435.50048    23.503933    22.158794   0.28735968    435.78784   -31.217057   -1439.2193 
    5700   -102951.99    -93346.15    233.23154    20727    226863.14     24.22542   -35.698181    70.300866    38.073574    435.42611    23.508339    22.162948   0.32454356    435.75066   -18.002564    -1507.357 
    5800   -102914.23   -93363.041    231.90469    20727    226766.15   -37.623934   -107.89433    130.45477   -135.43224    435.65087     23.49725    22.152493   0.21216703    435.86303   -25.549442   -1481.7553 
    5900   -102875.44    -93314.13    232.15035    20727    226826.63    13.219716   -79.532111    80.420986    38.770275     435.5085    23.504224    22.159068   0.28334866    435.79185   -37.451455   -1518.9147 
    6000   -102833.76   -93299.604    231.49104    20727    226617.65    45.526019   -34.115548   -131.02567    301.71928    435.40258    23.496251    22.151552   0.33631002    435.73889   -30.508398   -1548.6811 
    6100   -102853.07   -93296.707    232.03019    20727    226663.36   -63.974964    89.292892   -262.85127   -18.366516    435.44525     23.49747      22.1527   0.31497302    435.76023   -17.554134   -1558.9304 
    6200   -102833.71   -93336.259    230.59975    20727    226636.45    1.9374364   -70.008452    19.037616    56.783145    435.25685     23.50116    22.156179   0.40917632    435.66602   -28.350525   -1514.7483 
    6300   -102846.15   -93251.567    232.95832    20727    226659.36   -14.566536    37.946266    20.818677   -102.46455    435.25084    23.502509    22.157451   0.41217919    435.66302   -32.619032   -1594.1673 
    6400   -102823.56   -93267.208    232.03005    20727    226646.88    65.504851     126.4397   -7.8707299    77.945587    435.30911    23.500289    22.155358   0.38304651    435.69215   -23.781361   -1591.3526 
    6500   -102889.81   -93267.939    233.62081    20727    226631.77    -75.99226   -150.31858   -233.97831    156.32011     435.3826    23.497523     22.15275   0.34630065     435.7289   -16.259208   -1593.6774 
    6600   -102820.31   -93263.623    232.03813    20727    226650.77     33.08058    122.63177   -144.30765    120.91762    435.35821    23.499166    22.154299   0.35849469    435.71671   -36.398767   -1582.1739 
    6700   -102874.66   -93269.449    233.21623    20727    226747.51   -60.401908   -171.36132   -353.28085    343.43644    435.53153    23.499503    22.154617   0.27183692    435.80336   -24.809497   -1583.2007 
    6800   -102786.76   -93208.225    232.56869    20727    226681.22     17.59945   -160.07962    61.243735    151.63424    435.44096    23.498511    22.153682   0.31712207    435.75808     -43.5228   -1630.3625 
    6900    -102776.3   -93174.576    233.13168    20727    226622.33   -21.676507   -131.12027    252.98672   -186.89597    435.35496    23.497779    22.152992   0.36011961    435.71508   -38.184672   -1672.0516 
    7000   -102784.22   -93194.068    232.85072    20727    226905.56    2.7726202   -59.087167    209.28741   -141.88238     435.4492    23.509914    22.164432    0.3130011     435.7622    -56.47838   -1628.5535 
    7100    -102902.3   -93165.643    236.40783    20727    226765.96    -72.82593    6.5446273    34.649102   -259.67152    435.45149    23.502619    22.157554    0.3118564    435.76334   -37.434998   -1677.6169 
    7200   -102697.16   -93179.139    231.09937    20727    226522.77    50.226064    178.14306     31.13024    -58.59511    435.32795    23.493346    22.148812   0.37362417    435.70158    -27.39816   -1685.2843 
    7300   -102788.29   -93153.026    233.94603    20727    226770.51    99.953824    49.034634    34.486273    216.34056    435.51004    23.501275    22.156287   0.28258067    435.79262   -30.872062    -1707.135 
    7400   -102780.82   -93152.451    233.77854    20727    226868.16   -47.954039   -259.41252   -128.02875    243.57916    435.44841    23.507998    22.162625   0.31339358    435.76181   -42.430399   -1686.8434 
    7500   -102740.44   -93156.046    232.71076    20727    226809.16    88.208164   -110.23796    144.36413    230.49832    435.52197    23.502955    22.157872   0.27661441    435.79859   -34.127918   -1701.6444 
    7600   -102701.36   -93123.723    232.54684    20727    226902.21    25.997418     96.72091    21.528413   -40.257069    435.32902    23.512985    22.167328   0.37308964    435.70211   -44.071199   -1718.9184 
    7700   -102728.46   -93128.277    233.09413    20727    226782.97   -8.8701582   -12.983965   -14.464959   0.83844925    435.52987    23.501385    22.156391   0.27266517    435.80253   -19.763503   -1741.4116 
    7800   -102701.05   -93107.435    232.93467    20727    226831.48   -28.928556    20.262134    113.24108   -220.28889    435.47708    23.505323    22.160104   0.29905851    435.77614    -26.86587    -1752.799 
    7900   -102783.49   -93142.074    234.09536    20727    226727.94    46.461289    257.85849   -143.15427     24.67965    435.39324    23.502221    22.157179   0.34098054    435.73422   -24.454592   -1730.6798 
    8000   -102635.98   -93060.512    232.49415    20727    226653.61    50.466901   -31.703679    226.71194   -43.607557    435.54402      23.4943    22.149711   0.26558842    435.80961   -50.269188   -1787.3627 
    8100   -102670.11   -93023.603    234.21902    20727       226772   -29.679585    43.712305   -86.339195   -46.411867    435.45888    23.502732    22.157661   0.30816082    435.76704   -58.597866   -1809.8124 
    8200      -102700   -93046.475    234.38939    20727    226900.24    16.713905   -84.697788   -52.312285    187.15179     435.7628    23.501177    22.156195   0.15620216      435.919   -58.460152   -1786.8294 
    8300   -102671.71   -93043.476     233.7752    20727    227003.14   -32.156781   -34.294351   -226.88807    164.71208    435.56004    23.511976    22.166376   0.25757905    435.81762   -47.022826   -1796.4841 
    8400   -102611.92   -93024.932    232.77375    20727    226917.33    61.676322    33.894901   -137.54884    288.68291    435.61318    23.506098    22.160835   0.23101096    435.84419   -34.869889   -1835.7854 
    8500   -102665.15   -93047.622    233.51539    20727    227018.24     23.72473    95.547513    14.705589   -39.078912    435.69419    23.509138    22.163701   0.19050368     435.8847   -26.868677   -1816.7325 
    8600   -102687.63   -93025.257     234.6042    20727    226972.31    21.860198   -95.928023     233.4089   -71.900282    435.53482     23.51106    22.165513   0.27018935    435.80501   -35.215858   -1834.1574 
    8700   -102669.13   -93023.319    234.20206    20727     226976.2   -11.991846    49.417734   -83.093756   -2.2995139    435.67937    23.507361    22.162025   0.19791529    435.87728   -18.700889   -1852.6871 
    8800   -102608.69   -92975.159    233.90398    20727    227012.05   -69.366966   -213.41913   -148.46389    153.78212    435.49313    23.514244    22.168514   0.29103298    435.78417   -21.899897    -1892.776 
    8900    -102775.7   -93028.071     236.6742    20727    226925.15   -14.460476    4.2483174   -60.240573    12.610827    435.45179    23.510859    22.165323   0.31170695    435.76349   -2.0836876   -1868.0949 
    9000   -102546.11   -92963.293    232.67247    20727    226812.91    4.2065148   -100.27695    242.18479    -129.2883    435.65257    23.499627    22.154733   0.21131739    435.86388   -7.8343709   -1929.7478 
    9100   -102599.26    -92992.57     233.2521    20727    226834.91    25.050046   -182.80712    10.777719    247.17954    435.34832    23.508976    22.163548     0.363438    435.71176   0.15066736   -1909.2619 
    9200   -102624.35   -93010.488    233.42627    20727    226813.51    -51.65293    41.331401   -116.35846   -79.931729    435.32648    23.508458    22.163059    0.3743594    435.70084    -18.10366   -1872.2695 
    9300   -102657.64   -93007.385    234.30999    20727    226895.25    30.083188    26.032764   -68.536563    132.75336    435.66528    23.503549    22.158431   0.20495974    435.87024   -21.422773   -1876.9649 
    9400   -102636.39   -93029.974    233.24544    20727    226897.87    29.615596    63.802609    45.292736   -20.248556    435.56217    23.506466    22.161182   0.25651259    435.81869   -16.258078   -1859.1531 
    9500    -102554.9   -92994.758    232.12211    20727    226736.52    29.208228    121.86921   -186.56766    152.32313    435.37004    23.503291    22.158188    0.3525777    435.72262     3.721802   -1917.7061 
    9600   -102636.46   -92961.264    234.91562    20727    226686.04    2.1876791   -10.694189    110.26239   -93.005162    435.38137    23.500369    22.155434   0.34691403    435.72829   -6.0619358   -1942.4843 
    9700   -102623.43    -92971.49    234.35087    20727    226844.25    5.4599121   -92.225772    232.57679   -123.97128    435.41126    23.507762    22.162403   0.33196978    435.74323    -7.947851   -1929.1836 
    9800    -102715.9   -93029.513    235.18716    20727    226896.07   -18.023993     163.2069    119.15804   -336.43691    435.66686    23.503549    22.158431   0.20417101    435.87103     2.913092   -1880.4315 
    9900    -102769.5   -93034.587    236.36557    20727    226848.84   -68.661074    16.970451    -333.3019    110.34822    435.69393    23.500372    22.155436   0.19063498    435.88457   -0.6330836   -1872.5099 
   10000    -102596.2   -93018.219    232.55506    20727    226925.88    21.786095   -73.939962   -163.41037    302.70862    435.53008    23.508783    22.163366   0.27256118    435.80264    10.916356   -1900.7828 
   10100   -102631.33   -92979.466     234.3489    20727     226958.9    9.0083804    2.2462525   -34.053632    58.832521    435.67461    23.506594    22.161302   0.20029669     435.8749    7.4361779   -1936.6689 
   10200   -102601.44   -92934.063    234.72576    20727     226905.8   -20.327988    54.670368   -23.016316   -92.638016    435.79908    23.500487    22.155545   0.13805898    435.93714   -23.854434   -1951.7692 
   10300   -102588.17    -92951.51    233.97988    20727    226890.69   -21.509569   -30.981889   -129.07631    95.529489    435.56688    23.505967    22.160711   0.25415779    435.82104    18.235854   -1977.5413 
   10400   -102605.59   -92979.842    233.71487    20727    226720.03   -4.0427562   -84.176791    114.94151   -42.892988    435.51353    23.498565    22.153732   0.28083623    435.79436    9.6322299   -1946.7425 
   10500   -102726.29   -92949.077     237.3924    20727    227080.47   -8.1771785   -123.36114    165.51759   -66.687979    435.88111    23.507318    22.161985  0.097046746    435.97815    11.705637   -1972.3602 
   10600   -102567.18   -92917.228    234.30262    20727    227038.97    51.021547   -3.1261683   -36.357432    192.54824    435.83429    23.506432     22.16115   0.12045272    435.95475   -2.1332632   -1993.4392 
   10700   -102535.53   -92887.257    234.26173    20727    226759.76    61.120396   -19.297764   -96.597821    299.25677    435.43088    23.502854    22.157776   0.32215829    435.75304   -6.7027334   -2028.4639 
   10800   -102540.98   -92843.052    235.46752    20727    226736.55   -5.2157745   -39.818532   -11.081214    35.252422    435.59607    23.497194     22.15244   0.23956307    435.83564    13.961031   -2093.5463 
   10900   -102627.98   -92891.092    236.41344    20727    226981.35   -10.073155   -107.55667    184.69058   -107.35337    435.57782    23.510368     22.16486   0.24869133    435.82651    12.370206   -2037.1676 
   11000      -102476   -92826.277    234.29709    20727    226835.23    10.969969    39.255276     40.98591   -47.331281    435.45826    23.506025    22.160766   0.30846845    435.76673    5.7413524   -2098.9245 
   11100    -102487.4   -92825.366      234.596    20727    227082.21    11.844081    68.110946    244.00876   -276.58746    435.67092    23.513078    22.167415   0.20213946    435.87306    10.101394   -2099.1823 
   11200   -102544.25   -92838.784    235.65043    20727    226920.67     14.49168    120.27883    59.873337   -136.67713     435.5463    23.508075    22.162699   0.26444754    435.81075    10.645395   -2091.0946 
   11300   -102563.41   -92811.759    236.77191    20727    226947.87    -8.467452    8.0759866   -8.7112455   -24.767097    435.67393    23.506041     22.16078   0.20063691    435.87456   -12.655922    -2095.457 
   11400   -102515.21   -92776.387    236.46044    20727    226918.57    30.870447   -34.269192    48.902914    77.977619    435.60373    23.506417    22.161135   0.23573351    435.83947    4.7760273   -2151.7672 
   11500   -102492.29   -92784.283    235.71227    20727    227075.75   -20.339437   -173.02347   -13.079833    125.08499    435.54255    23.516208    22.170366   0.26632444    435.80888    14.885223   -2148.2247 
   11600      -102514   -92797.589    235.91616    20727     226842.7   -13.758431   -169.30353     266.1219   -138.09366     435.6154    23.502172    22.157133   0.22989862     435.8453    5.7189269   -2133.6373 
   11700   -102449.39   -92762.977    235.18783    20727    227043.57   -59.179567   -140.51745    119.52438   -156.54563    435.54282    23.514535    22.168788   0.26619052    435.80901    15.442977   -2168.6608 
   11800   -102446.44   -92736.062    235.76985    20727    226823.08    56.655086    79.607231    -21.45141    111.80944    435.45383    23.505516    22.160286   0.31068665    435.76451    10.402123    -2205.625 
   11900   -102451.52   -92740.219    235.79223    20727     226882.8   -3.3478288    6.5845691   -87.726984    71.098929    435.55975    23.505751    22.160507   0.25772294    435.81748   -3.6218708   -2183.4473 
   12000    -102432.5   -92716.904    235.89648    20727       226958   -30.840409   -69.939014   -199.05204    176.46982    435.49082    23.511507    22.165934   0.29218955    435.78301    4.0817517   -2213.5516 
   12100   -102412.48   -92701.975    235.77271    20727    226906.09      14.5978    112.70773    97.723475   -166.63781    435.59434    23.506024    22.160765   0.24043147    435.83477    29.595372   -2254.7859 
   12200   -102422.44   -92688.318    236.34616    20727    226920.75    51.223457    47.186803    269.84794   -163.36437    435.32892    23.513949    22.168236   0.37314088    435.70206    11.714421   -2255.1743 
   12300    -102434.7   -92669.454    237.10184    20727    226928.07    43.801973    195.94521    414.20362   -478.74291    435.52231    23.509106    22.163671   0.27644706    435.79875     9.647695   -2271.6633 
   12400   -102419.09   -92703.285    235.90149    20727    226798.09    63.704015   -68.400095    165.25399    94.258146    435.45074    23.504304    22.159143    0.3122285    435.76297    21.106287   -2255.9102 
   12500    -102487.1    -92657.12    238.67373    20727    226850.75    -45.25347   -49.104968   -71.043116   -15.612324    435.23576    23.512837    22.167188   0.41971899    435.65548    5.2046696   -2281.1369 
   12600   -102341.22   -92584.223    236.90178    20727    226816.65   -25.448292    63.547247   -248.08163    108.18951    435.47083    23.504724    22.159539   0.30218283    435.77302   -8.4274317   -2342.3614 
   12700   -102336.17   -92593.989    236.54188    20727    226973.59   -1.3566437   -73.384664    117.64036   -48.325625    435.60992      23.5091    22.163665   0.23264154    435.84256   -23.917878   -2316.2984 
   12800   -102313.63   -92577.142    236.40372    20727    226799.82    8.9709952    41.710786   -32.988108    18.190307    435.25207    23.509757    22.164284   0.41156496    435.66364   -17.357956   -2344.7135 
   12900    -102372.4   -92564.602    238.13507    20727    226987.76   -97.012737   -39.802276    -108.5195   -142.71644    435.42159    23.514917    22.169149    0.3268035     435.7484   -7.9064305   -2358.8423 
   13000   -102257.44   -92541.214    235.91173    20727    226903.74   -24.412184     9.602749   -84.103842    1.2645413    435.45174    23.509751    22.164278   0.31172837    435.76347    -23.00046    -2372.992 
   13100   -102289.54   -92536.169    236.81365    20727    226962.33   -11.787517   -8.2787919   -247.86691    220.78315    435.39872    23.514217    22.168489   0.33824067    435.73696    -35.46453   -2365.7149 
   13200   -102301.93   -92533.955    237.16828    20727     226769.7    45.173681   -5.6588123   -96.967947     238.1478    435.16224    23.510622      22.1651   0.45648201    435.61872   -32.458296    -2378.687 
   13300   -102210.61   -92461.376    236.71305    20727    226774.16   -1.5233588    137.31617   -284.30238    142.41613    435.48482    23.502144    22.157107   0.29518883    435.78001   -31.698122   -2450.8471 
   13400   -102311.88    -92428.59    239.96798    20727    226612.73   -16.704365   -16.149889    5.4544096   -39.417616    435.22993    23.500656    22.155704   0.42263661    435.65256   -53.599806   -2471.1293 
   13500   -102326.47   -92464.038    239.46172    20727    226699.62   -46.076643    21.735618   -141.34602   -18.619528    435.03248    23.510495     22.16498   0.52136189    435.55384   -41.580302   -2442.6279 
   13600   -102282.03   -92449.937    238.72492    20727    226661.22   -20.720045   -251.36391    67.843405    121.36037    435.15223    23.505269    22.160053   0.46148661    435.61371   -40.378824   -2459.7682 
   13700   -102231.84   -92326.819    240.49578    20727    226798.19   -85.371603   -65.703842   -112.37247   -78.038499    435.28077    23.508898    22.163474   0.39721608    435.67798   -77.387372   -2540.0531 
   13800   -102244.12   -92376.656    239.58372    20727    226721.42    22.663949    84.234844    168.73285   -184.97585    435.34591     23.50316    22.158065   0.36464318    435.71056   -68.497437   -2506.5157 
   13900   -102235.58   -92378.738    239.32596    20727     226847.2   -15.160184     32.93611   -16.399104   -62.017557     435.3102    23.510643    22.165119   0.38249764     435.6927   -44.686419   -2524.8622 
   14000   -102186.02   -92392.585    237.78639    20727    226782.38    54.625603    189.24103    33.455165   -58.819384     435.3588    23.505972    22.160715   0.35820006      435.717   -58.058337   -2504.2275 
   14100   -102168.73   -92323.674    239.03973    20727    226816.82    21.061718   -96.174891   -43.051541    202.41159    435.38311      23.5071    22.161779   0.34604455    435.72916   -91.655775   -2536.8172 
   14200   -102227.96   -92339.462    240.09443    20727    226704.42    -72.61754   -75.845181   -225.27536    83.267917    435.05547    23.510122    22.164629   0.50986391    435.56534   -76.324363   -2538.3439 
   14300   -102172.95   -92358.981    238.28489    20727     226650.8   -39.983766    92.775568   -306.21243    93.485564    435.30103     23.50071    22.155755   0.38708254    435.68812   -49.034691   -2547.8239 
   14400   -102246.61   -92351.008    240.26713    20727    226665.55   -22.873377   -103.46357   -99.814299    134.65774     435.3343    23.500577     22.15563   0.37045035    435.70475   -56.641346   -2551.6133 
   14500   -102202.39   -92321.298    239.91479    20727    226552.18   -3.2818992   -114.15646    50.972898    53.337866    435.35115    23.494245     22.14966   0.36202353    435.71318   -53.856307   -2590.6676 
   14600   -102106.99   -92349.697    236.90885    20727    226540.72   -7.4311828    147.45937    86.172027   -255.92494    435.24267    23.496578     22.15186   0.41626395    435.65894   -65.141218   -2550.0819 
   14700   -102110.17   -92358.844     236.7639    20727    226652.39    87.179363     108.2834   -142.32651     295.5812    435.23822    23.502489    22.157432   0.41849084    435.65671   -56.954113   -2551.8177 
   14800   -102165.99   -92284.649     239.9208    20727    226679.96    34.091526    94.990342   -147.51872    154.80296    435.30732    23.502052    22.157021   0.38394078    435.69126   -61.271321   -2620.0074 
   14900   -102164.39   -92280.045    239.99374    20727    226614.45   -25.130725    -291.9276    100.52344    116.01199     435.2692    23.499685    22.154789   0.40299882     435.6722   -61.815826   -2623.6092 
   15000    -102083.3   -92259.103    238.53339    20727    226583.75    18.090208   -97.639964    112.93806    38.972534    435.24822     23.49866    22.153822   0.41348992    435.66171   -36.605701   -2674.9564 
   15100   -102057.29    -92204.08    239.23773    20727    226705.41   0.67097219    83.589498    -50.17218   -31.404401    435.31192    23.503248    22.158147   0.38164044    435.69356   -57.579089   -2704.0319 
   15200   -102160.95   -92234.015    241.02778    20727    226697.02   -71.957689   -34.638139   -337.48237    156.24744    435.36869     23.50128    22.156293   0.35325429    435.72195   -54.977972    -2676.577 
   15300   -102130.25    -92250.45    239.88334    20727     226789.5   -31.153669    52.571482   -34.690171   -111.34232    435.53703    23.501531    22.156529   0.26908677    435.80611   -30.769006   -2684.9391 
   15400   -102205.04   -92270.877    241.20339    20727    226681.61    -3.102602    10.583561    215.65046   -235.54183    435.10522    23.507596    22.162246   0.48499009    435.59021   -32.162186   -2668.7212 
   15500   -102123.08   -92291.009     238.7244    20727    226764.65     -7.45466   -12.045363   -132.85362      122.535    435.21506    23.508934    22.163508   0.43006808    435.64513   -45.831893   -2631.9435 
   15600   -102168.31   -92214.679    241.67594    20727    226714.21   -46.791337   -36.315385   -341.10286    237.04423    435.34396    23.502839    22.157762   0.36561937    435.70958   -34.857548   -2720.5446 
   15700   -102055.69   -92160.741    240.25113    20727    226776.28    23.608932   -118.22229    219.01708   -29.968002    435.32339    23.506611    22.161319   0.37590681    435.69929   -53.319903   -2758.6319 
   15800   -102078.26   -92216.269    239.45099    20727    226707.09   -11.740622   -155.83214   -68.378281    188.98856    435.19521    23.506486      22.1612   0.43999592     435.6352    -49.00133   -2707.0997 
   15900   -102021.64   -92161.465    239.40688    20727    226858.52    98.155558    230.00165    95.284971   -30.819945    435.29151    23.511734    22.166148   0.39184518    435.68335   -58.143045   -2754.6681 
   16000   -101978.13   -92150.838    238.60853    20727    226635.77   -20.256261   -218.30908    1.0598292    156.48047     435.2914    23.500191    22.155266   0.39189853     435.6833    -55.62395    -2769.283 
   16100   -102036.05   -92141.559    240.24002    20727    226625.67   -38.605975   -55.110868   -291.86564    231.15858    434.96641    23.508445    22.163047   0.55439329    435.52081   -55.754162    -2779.856 
   16200   -101981.05   -92099.088    239.93571    20727    226646.94   -18.760345    52.152896    221.46298   -329.89691    435.10448    23.505818     22.16057   0.48536149    435.58984   -54.315624   -2825.7554 
   16300   -101997.59   -92079.152    240.82153    20727    226695.84   -41.007607   -156.84263    32.069124    1.7506836    435.07713    23.509092    22.163657   0.49903602    435.57616   -72.992547   -2825.6807 
   16400   -102004.71   -92107.648    240.30241    20727    226573.99    50.652883    94.108961   -60.435869    118.28556    435.26644    23.497662    22.152881   0.40437891    435.67082   -61.341322   -2817.7611 
   16500   -101946.93   -92060.658    240.04045    20727    226725.43   -22.234962   -71.151238    36.140837   -31.694484    435.34651    23.503352    22.158245   0.36434598    435.71085   -69.255913   -2849.7626 
   16600   -102004.53    -92038.28    241.98244    20727    226660.27   -84.444369   -133.84064   -367.07023    247.57777    435.25587    23.502421    22.157368   0.40966631    435.66553   -64.298536   -2876.9782 
   16700   -101950.52   -92015.888    241.21463    20727       226591    52.111224    224.30232   -27.684481    -40.28417    434.73644    23.512863    22.167213   0.66937909    435.40582   -86.573813   -2887.1597 
   16800   -101986.45   -92045.876     241.3589    20727    226676.96   -40.062346   -26.949655    102.81916   -196.05654    435.03177    23.509339     22.16389   0.52171523    435.55348   -56.954706   -2879.4167 
   16900   -101990.32   -92028.197    241.88227    20727    226655.62   -25.801417   -11.810449   -186.71793    121.12413    435.13173    23.505532    22.160301   0.47173615    435.60346   -63.912462    -2895.073 
   17000    -101979.9   -92016.781    241.90646    20727    226635.15   -3.9049788   -132.94184    4.9805494    116.24636    434.65728    23.517295    22.171391   0.70895785    435.36624   -48.450834   -2923.0475 
   17100   -102002.06   -92025.079    242.24282    20727    226553.25   -50.812075    -238.0484    179.61916   -94.006991    434.72836    23.511123    22.165572   0.67342187    435.40178    -56.60141   -2908.6418 
   17200      -101941    -92033.51    240.55557    20727    226575.45    17.667747    31.426478    289.89033   -268.31357    434.80392    23.510232    22.164732   0.63564093    435.43956   -59.079073   -2902.0243 
   17300   -101984.12   -92009.593    242.18325    20727    226603.39   -27.921557    70.083256   -192.44019    38.592262    434.83753    23.510773    22.165242   0.61883495    435.45637   -43.729852   -2937.8576 
   17400   -101968.72   -92011.295    241.76804    20727    226683.95    37.014531   -79.003672    106.31572    83.731544    434.75382    23.517215    22.171316   0.66069061    435.41451   -41.835182   -2941.5582 
   17500   -101989.25   -91964.224    243.40941    20727    226709.95   -50.864706   -84.607821    56.416246   -124.40254    434.82466    23.516648    22.170781   0.62527111    435.44993   -79.464566   -2946.8785 
   17600   -101928.11    -91969.02    241.80859    20727    226697.44    9.4540314    53.584683   -146.17972    120.95713     434.8051    23.516529    22.170668   0.63505174    435.44015   -47.848341   -2977.6244 
   17700   -101907.88   -91944.919    241.90242    20727    226704.69   -37.657056   -74.199591   -90.833473    52.061897    434.57228    23.523203    22.176961   0.75146103    435.32374    -70.32279   -2978.0363 
   17800   -101997.52   -91967.288    243.53588    20727    226604.85   -30.524928    45.908432   -194.27096    56.787747    435.10868    23.503522    22.158406   0.48325895    435.59194   -74.857251   -2955.8073 
   17900   -101837.72   -91916.168    240.89705    20727    226766.87    24.343658    43.399967   -24.007914    53.638922    435.01948    23.514333    22.168598   0.52785916    435.54734   -68.479386   -3011.1055 
   18000   -101885.65    -91896.25    242.54449    20727    226616.47    9.9950563   -65.571751    177.75424   -82.197319    434.87252    23.510505     22.16499   0.60133915    435.47386   -80.013483   -3024.0136 
   18100   -101929.77   -91886.279    243.85789    20727    226619.53    64.500869    108.67563    95.665755   -10.838774    434.85161    23.511229    22.165672   0.61179307    435.46341   -70.337048   -3050.0589 
   18200   -101862.35    -91868.73    242.64699    20727    226528.79   -108.88593   -139.55456   -54.201134   -132.90209    434.77638    23.508555    22.163151   0.64940916    435.42579   -69.638578   -3061.7212 
   18300   -101843.06   -91827.379    243.18261    20727    226660.78    30.525726     57.08515   -61.499581    95.991609    434.99099    23.509602    22.164138   0.54210522    435.53309   -94.236608   -3083.7831 
   18400   -101909.38   -91830.284     244.7223    20727    226633.38   -52.885563   -299.86346   -261.02184    402.22861    434.93179     23.50978    22.164306   0.57170342     435.5035   -84.361574   -3090.9916 
   18500   -101789.14   -91807.236    242.36254    20727     226514.8   -80.528108   -98.989063   -138.49104   -4.1042244    434.72039    23.509344    22.163895   0.67740622    435.39779   -83.858743   -3113.1044 
   18600   -101864.74   -91800.355    244.36515    20727    226729.44     -4.35048    3.8853459    60.385746   -77.322532     435.1235    23.509582    22.164119   0.47584829    435.59935   -90.391256   -3116.6754 
   18700   -101776.65   -91775.885    242.82039    20727    226632.84    77.400608    190.13567    80.606183   -38.540029    435.09231    23.505415    22.160191   0.49144512    435.58375   -109.07786   -3127.9203 
   18800    -101804.9   -91775.247     243.5219    20727    226566.39   -58.505107   -99.569245    -429.5047    353.55863    434.95321    23.505727    22.160485   0.56099285    435.51421   -100.64167   -3131.7266 
   18900   -101760.99   -91808.842    241.64009    20727    226568.93    25.446998    237.86641    124.26034   -285.78575    434.65173    23.514009    22.168293    0.7117349    435.36347   -68.671746   -3138.4206 
   19000   -101804.31   -91747.105    244.19073    20727    226677.84   -2.1705736    102.77043   -127.75426    18.472111    434.83927    23.514588    22.168838   0.61796325    435.45724   -101.78011   -3162.7635 
   19100    -101735.2   -91736.389    242.77303    20727    226547.26    18.874364     96.94046   -20.167245   -20.150125    434.80705    23.508685    22.163274   0.63407545    435.44112   -106.67284    -3173.095 
   19200   -101730.28   -91725.799    242.91074    20727    226553.38    40.072618    59.739966     159.6959   -99.218017    435.00449    23.503667    22.158542   0.53535438    435.53985   -116.47232   -3177.4356 
   19300   -101722.75   -91726.493    242.71093    20727    226653.67  -0.93460148    70.486418    164.92158    -238.2118    435.10732     23.50609    22.160827   0.48394148    435.59126   -94.252455   -3197.6403 
   19400   -101742.86   -91668.635     244.6041    20727    226628.66     53.41835    269.65183   -24.935636   -84.461146    435.00588    23.507534    22.162188   0.53465982    435.54054   -102.05418   -3251.5164 
   19500   -101600.97   -91677.714    240.93857    20727    226769.25    72.586612   -25.002997    12.036185    230.72665    434.83404     23.51947    22.173441   0.62058137    435.45462   -96.443892   -3245.4478 
   19600   -101650.99   -91700.267    241.60545    20727    226393.29    68.743891    15.307451   -29.452431    220.37665    434.71997    23.503048     22.15796   0.67761395    435.39759   -97.422931   -3233.0453 
   19700   -101668.86   -91688.406    242.32716    20727    226522.24   -10.298606   -197.37966   -91.034927    257.51877    434.73972    23.509207    22.163765   0.66773791    435.40746   -85.954517   -3250.3221 
   19800   -101644.85   -91696.952     241.5367    20727    226431.36   -27.969839   -55.166257    183.16023   -211.90349    434.83739    23.501851    22.156831   0.61890604    435.45629   -84.036755   -3245.6367 
   19900   -101678.42   -91695.072    242.39749    20727    226381.41    11.796226    88.796122     55.29219   -108.69963    434.75654    23.501443    22.156446    0.6593322    435.41587   -95.343274   -3242.2041 
   20000   -101738.52    -91709.06    243.51711    20727    226325.15    7.5392445    125.93582     174.3672   -277.68528    434.52058    23.504902    22.159708   0.77731142    435.29789   -86.215954    -3242.553 
   20100   -101673.31   -91665.629    242.98837    20727    226321.71   -102.50337   -55.501126   -326.01509    74.006118    434.75204    23.498466    22.153639   0.66157989    435.41362   -91.026492   -3272.9468 
   20200   -101708.47   -91663.234    243.90013    20727    226266.01    42.621587     45.42965    179.66929    -97.23418    434.62621    23.498975    22.154119   0.72449517     435.3507   -82.928167   -3296.2249 
   20300   -101696.65   -91639.416     244.1914    20727    226389.49   -20.278167   -19.722629   -112.41071     71.29884    434.46107    23.509853    22.164375   0.80706633    435.26813   -88.329407   -3307.0632 
   20400    -101645.4   -91643.933    242.83745    20727    226150.19    40.143944    126.32613    23.082839   -28.977139    434.51226     23.49604    22.151353    0.7814688    435.29373   -99.565642   -3304.5668 
   20500   -101667.36   -91613.494    244.10967    20727    226301.03   -33.677653    61.552874   -25.828673   -136.75716    434.62679    23.500778    22.155819   0.72420738    435.35099   -100.91299   -3325.9026 
   20600   -101620.69   -91595.973    243.40198    20727    226324.65   -1.3605745    5.6698796    88.077023   -97.828626    434.62439    23.502069    22.157036   0.72540691    435.34979   -113.54666   -3333.2801 
   20700   -101704.06    -91590.82    245.55126    20727    226131.19    -13.00897   -167.72907    25.694618    103.00755    434.34808    23.499493    22.154608   0.86356247    435.21164   -112.20494    -3345.949 
   20800   -101564.87   -91505.227    244.24989    20727    226416.41    -32.66833    -66.21421    98.937288   -130.72807    434.70062    23.504772    22.159584   0.68728842    435.38791   -129.40266   -3406.0972 
   20900   -101553.44   -91501.834    244.05489    20727    226416.43    19.495244    2.0198939    57.479521   -1.0136822    434.48568    23.510586    22.165065   0.79475848    435.28044   -144.63697   -3398.5677 
   21000    -101569.1    -91454.27    245.58985    20727    226518.29    15.320281    44.424039   -123.37999     124.9168    434.64092    23.511674    22.166091   0.71713866    435.35806   -140.01949   -3448.7379 
   21100   -101541.84   -91449.793    245.03667    20727    226554.65    -9.708862    72.755445    -58.38437    -43.49766    434.57045    23.515467    22.169667   0.75237441    435.32283   -146.69143   -3444.6952 
   21200   -101560.63   -91422.052    246.16647    20727     226609.8   -5.6738905    51.556264   -140.13863    71.560696    434.79393    23.512284    22.166667   0.64063684    435.43456   -163.76973   -3456.6751 
   21300   -101469.25   -91371.092    245.18516    20727    226535.57    9.3050909   -118.87511   -11.396486    158.18687    434.66049    23.512041    22.166438    0.7073553    435.36784   -161.19596   -3511.2004 
   21400   -101388.62    -91305.75     244.8139    20727    226580.94   -22.825552    182.85157   -47.989465   -203.33876    434.52143    23.518158    22.172204   0.77688558    435.29831   -181.00524   -3555.4252 
   21500   -101460.56   -91339.448    245.74235    20727    226438.91   -18.877074   -82.666952   -78.210119    104.24585    434.41703    23.513611    22.167917   0.82908658    435.24611   -170.15887   -3538.4097 
   21600   -101400.44   -91346.856    244.10297    20727    226391.82   -11.920539   -47.668584   -53.324072    65.231039      434.445    23.510409    22.164899    0.8150999     435.2601   -176.32441   -3526.4006 
   21700    -101450.2   -91320.033     245.9623    20727    226311.85     29.13374    209.31005   -338.92597    217.01714    434.40966    23.507212    22.161885   0.83277087    435.24243   -181.54967   -3554.4823 
   21800    -101484.1   -91365.405    245.68363    20727    226492.99    2.4883907    28.523379   -29.173399    8.1151922    434.27829    23.520175    22.174106   0.89845433    435.17675   -179.96828   -3506.3697 
   21900   -101498.29    -91389.23    245.44994    20727    226302.35    1.1655794   -75.697757   -113.17658    192.37108    434.09211    23.515315    22.169524   0.99154391    435.08366   -171.65662   -3498.0766 
   22000   -101543.81   -91373.337    246.94096    20727    226453.82   -93.165904   -100.87304   -247.65431    69.029632    434.54014    23.511054    22.165507   0.76753234    435.30767   -175.45743   -3502.6341 
   22100   -101450.09   -91377.094    244.57407    20727    226261.31    3.1140423    -160.9463    150.17071     20.11772    434.21009    23.509988    22.164502   0.93255485    435.14265   -188.97835    -3496.299 
   22200   -101409.89     -91336.2    244.59091    20727    226261.51    74.613184    39.069565   -36.120388    220.89038    434.25456    23.508795    22.163377   0.91031992    435.16488   -167.26583   -3563.9345 
   22300   -101452.46   -91346.759    245.36819    20727    226345.01    52.243925   -82.615212    300.83554   -61.488554    434.13796    23.516289    22.170443    0.9686196    435.10658   -170.22373    -3547.421 
   22400   -101582.47   -91322.756    249.10775    20727     226332.4   -33.324642   -20.995837    57.399151   -136.37724    434.01617    23.518934    22.172936     1.029515    435.04568     -153.539   -3585.1508 
   22500   -101466.59   -91327.342    246.18286    20727    226343.88   -23.433908   0.42725439    88.126362   -158.85534    434.12052    23.516703    22.170833   0.97733944    435.09786   -166.41289   -3568.1075 
   22600   -101453.85   -91299.529    246.54874    20727    226294.14    75.895998    74.660156    86.679505    66.348332    433.83717    23.521797    22.175635    1.1190167    434.95618   -182.40377   -3586.8733 
   22700   -101329.57   -91333.893    242.69697    20727    226168.47    114.10405    43.968461    124.41274    173.93095    433.71879    23.518473    22.172502    1.1782071    434.89699   -133.56871   -3607.2031 
   22800   -101449.42   -91295.692    246.53436    20727     226310.2    72.398994    92.157647    -56.82597     181.8653    433.95196     23.51952    22.173489    1.0616198    435.01358   -170.00914    -3603.755 
   22900   -101423.04   -91272.429    246.45866    20727    226174.23   -1.7097358    68.763084   -28.827265   -45.065026    433.92766    23.513112    22.167447    1.0737698    435.00143    -179.8592   -3618.1175 
   23000   -101405.72   -91240.075    246.82382    20727    226134.87   -13.386984    -158.3952   -47.598747      165.833    433.77248    23.515271    22.169482    1.1513612    434.92384   -185.16513   -3648.7741 
   23100   -101427.23   -91223.768    247.74204    20727    226175.33   -56.842121   -52.957865    39.219839   -156.78834    433.98039    23.511741    22.166154     1.047407    435.02779   -175.84861   -3671.3805 
   23200   -101426.32   -91215.635    247.91721    20727    226245.31     -76.4688   -99.805735   -141.15147    11.550804    434.04016    23.513758    22.168057    1.0175209    435.05768   -172.25518   -3682.2427 
   23300   -101275.08   -91157.027    245.66812    20727    226098.49   -37.488916   -64.218302   -180.73231    132.48386    433.87994    23.510467    22.164954    1.0976286    434.97757   -206.69523   -3710.0419 
   23400   -101319.95   -91184.418    246.09255    20727    226257.93    89.873283   -93.881029    251.84609    111.65479    434.11112    23.512492    22.166863   0.98203795    435.09316   -176.27197   -3717.5489 
   23500   -101305.38   -91174.951    245.96854    20727    226302.59    12.676623     14.84143    148.62985   -125.44141    433.91059    23.520246    22.174173    1.0823069    434.99289    -183.2339   -3716.6791 
   23600   -101318.55   -91213.948    245.34149    20727    226082.71     13.70218    156.01939    64.837162   -179.75002    433.75496    23.513033    22.167373    1.1601183    434.91508   -167.64544   -3701.7862 
   23700   -101400.86   -91215.193    247.30992    20727    226131.41   -2.4991962    57.449164   -2.1973539   -62.749398    433.68131    23.517562    22.171643    1.1969441    434.87826   -169.80065   -3697.6084 
   23800   -101358.84   -91217.559    246.23209    20727    226117.13    60.947257    36.029938    1.9200538    144.89178    433.96879    23.509029    22.163598    1.0532048      435.022   -168.71541   -3704.2378 
   23900   -101339.53   -91177.486    246.73618    20727    226160.14   -44.392774   -187.59738   -209.19406    263.61311    433.73593    23.517576    22.171655    1.1696354    434.90556   -161.76615   -3742.3894 
   24000   -101280.85   -91166.229    245.58475    20727    226276.18   -38.754977   -136.80001   -176.72543    197.26051    434.00249    23.516383    22.170531    1.0363573    435.03884   -163.31252   -3749.3107 
   24100   -101321.94   -91103.113    248.11503    20727    226109.79   -20.856787    34.978551   -98.582733      1.03382    433.83381    23.512305    22.166686    1.1206966     434.9545   -184.12991   -3799.6814 
   24200   -101237.37   -91084.386     246.5162    20727    226220.72   -3.1923157   -119.24604    98.770446    10.898642    433.67004    23.522512    22.176309    1.2025786    434.87262   -190.73329    -3808.253 
   24300   -101425.53   -91093.053    250.87438    20727    226174.32    12.057489    7.7690784   -34.555725    62.959113    433.54141    23.523588    22.177324    1.2668969     434.8083   -188.59305   -3807.9033 
   24400   -101178.24   -91054.389      245.809    20727    226195.32   -45.745944    58.085468   -78.857651   -116.46565    433.72581    23.519679    22.173639    1.1746968     434.9005   -190.94239   -3840.2153 
   24500    -101283.2   -91087.102    247.56311    20727    226210.54    80.287442   -12.277044   -138.19508    391.33445    433.76619    23.519375    22.173352     1.154505    434.92069   -198.52407   -3806.8756 
   24600   -101323.67   -91079.507    248.73019    20727    226166.69   -29.065335    182.68066   -102.06162   -167.81504     433.4418    23.525894    22.179498    1.3166991     434.7585   -199.87473    -3810.954 
   24700   -101361.32    -91095.33    249.26002    20727    226091.19   -90.929758     12.00903   -299.53264    14.734338    433.55945    23.518775    22.172786     1.257874    434.81733   -183.68666   -3812.3046 
   24800   -101202.94   -91065.771    246.13229    20727    226262.73   -3.6682554    -85.48576    135.90171   -61.420712    433.64262     23.52544    22.179069    1.2162883    434.85891   -198.84646   -3824.3941 
   24900   -101254.14   -91033.216    248.16592    20727    226106.98   -15.729935   -80.275458   -73.827759    106.91341    433.50829    23.520984    22.174869    1.2834535    434.79175   -199.52574   -3862.3108 
   25000   -101281.29   -91110.815    246.94102    20727       226111   -61.408577   -145.58752     -138.411    99.772792    433.50049    23.521405    22.175266    1.2873547    434.78785   -173.69539   -3810.0479 
   25100   -101227.26   -91038.979    247.37332    20727    225957.85   -41.611508    -49.81141   -123.50026    48.477143    433.30348    23.518783    22.172793    1.3858603    434.68934    -173.3633   -3887.7322 
   25200   -101305.88    -91045.74    249.11803    20727    226119.41    43.931481    157.43809   -69.510415    43.866774    433.35688     23.52574    22.179352    1.3591583    434.71604    -205.9269   -3850.8081 
   25300   -101208.37   -91040.515    246.87741    20727     226044.8    58.598556    116.40465    189.20488   -129.81386    433.46051    23.519046    22.173042    1.3073462    434.76785   -184.49914   -3879.6705 
   25400   -101293.12   -91035.923    249.04654    20727    225970.81     10.18369   -53.676555    213.11647   -128.88885    433.24297      23.5211    22.174978     1.416114    434.65909   -176.73539   -3894.2949 
   25500   -101213.66   -90966.289    248.80797    20727    226030.74    42.100098    95.697729    272.68726    -242.0847    433.19747    23.525454    22.179083    1.4388625    434.63634   -182.94342   -3957.6495 
   25600    -101182.1    -90986.82    247.54338    20727     226095.7   -63.629499    94.976714   -155.01735   -130.84786    433.22773    23.528012    22.181495    1.4237354    434.65146   -179.18173   -3934.5013 
   25700   -101115.07   -91006.781    245.43103    20727    225806.29   -29.446353   -149.33354    114.29022   -53.295745    432.86388    23.522829    22.176608    1.6056615    434.46954   -169.66064   -3933.8072 
   25800   -101290.54   -90997.766    249.91032    20727    226142.38   -38.146194    55.206122    17.655886   -187.30059     433.1782    23.531786    22.185053    1.4485009     434.6267   -160.67553   -3945.2231 
   25900   -101218.32   -91004.291    247.99861    20727    225901.97    23.627124    1.6029153   -84.675203    153.95366    433.10099    23.521371    22.175234    1.4871045     434.5881   -145.89033   -3963.1956 
   26000   -101144.98   -90963.484    247.20846    20727    226020.66    44.623169    22.337142   -33.967286    145.49965    433.48018    23.517257    22.171355     1.297508    434.77769   -174.02123   -3972.4988 
   26100   -101159.88   -91008.618    246.47454    20727    226115.48    75.320973    23.226137     160.7207    42.016085    433.36156    23.525408     22.17904     1.356819    434.71838   -144.26291   -3957.7401 
   26200   -101337.92   -91007.144    250.83309    20727    226195.07   -70.597391   -327.72216   -164.84065    280.77064    433.27256    23.531965    22.185221    1.4013223    434.67388   -135.75907   -3961.9405 
   26300   -101184.29   -90929.963    248.97693    20727    225834.38   -8.7062847   -155.07315    307.50516   -178.55086    433.16992    23.515981    22.170152    1.4526392    434.62256   -157.20962   -4031.2505 
   26400   -101210.36   -90963.611    248.79291    20727    226017.74   -10.114473   -42.891523    127.31097   -114.76287    433.32823    23.521228    22.175099    1.3734871    434.70171    -137.5735   -4012.8276 
   26500    -101156.6    -90928.07    248.35062    20727    225983.88    10.897147    103.37414   -85.595655    14.912954    433.30077    23.520211     22.17414    1.3872157    434.68798   -167.47633   -4020.5341 
   26600   -101053.89   -90943.457    245.48316    20727    226085.93    22.274881    230.79573    -16.92747   -147.04362    433.43265    23.521942    22.175772    1.3212741    434.75393   -130.12213   -4041.2369 
   26700   -101208.91   -90965.532    248.71097    20727    225897.69   -4.3812139    -135.6786   -174.44868    296.98364    433.50011    23.510318    22.164813    1.2875473    434.78765   -125.87707   -4031.1639 
   26800   -101116.53   -90905.753    247.91957    20727    226108.26   -84.712133    23.289527   -205.29006   -72.135868    433.80823    23.512918    22.167265    1.1334837    434.94172   -151.58447   -4056.0315 
   26900    -101088.5   -90950.945    246.14177    20727    225811.03    53.438373   -15.828211    15.881323    160.26201    433.64512    23.501877    22.156855    1.2150388    434.86016   -104.46498    -4073.428 
   27000   -101204.58   -90921.886    249.66575    20727    226055.84    25.391914    175.09349   -113.21685      14.2991    433.99993       23.505    22.159799    1.0376353    435.03756   -121.51225   -4080.1161 
   27100   -101143.64   -90896.466    248.80315    20727     225900.2   -5.4506915    28.086346    133.27085   -177.70927    433.76407    23.503294    22.158191    1.1555657    434.91963   -104.88632   -4123.9872 
   27200   -101149.73   -90880.362    249.34214    20727    226058.62   -27.928735    -23.68254   -93.257137    33.153473    433.89324    23.508034     22.16266     1.090979    434.98422   -127.58496   -4113.0776 
   27300   -101164.54   -90892.572    249.40522    20727    225987.26   -72.319347   -144.16049    75.747938   -148.54549    434.04674    23.500167    22.155243    1.0142305    435.06097   -118.51027   -4111.6126 
   27400   -101125.47   -90831.983    249.92763    20727    226230.91   -5.7171807   -164.89362    10.346146    137.39593     434.0415    23.512974    22.167317    1.0168519    435.05835    -141.0853   -4145.7178 
   27500   -100975.21   -90832.371    246.27001    20727    225861.65    26.444254   -53.728778    20.378132    112.68341    433.83226    23.499441    22.154559    1.1214712    434.95373   -120.12719   -4179.6632 
   27600   -101041.42   -90789.245    248.92462    20727    225972.72    42.748275    22.280724    46.994522    58.969577    433.90435    23.503266    22.158165    1.0854256    434.98977   -133.24993   -4209.8205 
   27700   -101058.16   -90806.449    248.91346    20727    225979.81   -71.443338   -261.27722   -22.821098    69.768306    433.69895      23.5092    22.163759    1.1881256    434.88707   -122.87962   -4198.3054 
   27800   -101089.86     -90835.6    248.97521    20727    226052.08    18.871686    14.245556   -9.0509793    51.420481    433.60409    23.515531    22.169727    1.2355551    434.83964   -106.83723   -4188.2118 
   27900   -101075.64    -90847.95     248.3301    20727    225953.09    70.962009    285.33176    -66.62706   -5.8186718    433.53644    23.512215    22.166602    1.2693789    434.80582   -114.56813   -4173.6608 
   28000   -101002.64   -90878.297     245.8209    20727    225925.32    133.25947    176.17375    39.914287    183.69036    433.42068     23.51391    22.168199    1.3272576    434.74794   -106.59432   -4157.7064 
   28100   -101064.52   -90809.241    249.00012    20727    226092.64    -72.59428   -266.61786   -42.480328    91.315352    433.65657    23.516217    22.170375     1.209314    434.86589   -135.44412   -4183.9448 
   28200    -101060.3   -90817.778    248.69027    20727    225927.91    82.648527    58.611564   -18.644361    207.97838    433.41554    23.514184    22.168458    1.3298304    434.74537   -124.20146   -4201.7592 
   28300   -100925.08   -90787.297    246.14729    20727    226012.51    38.318467   -1.8749842   -61.051991    177.88238    433.50895    23.516052    22.170219    1.2831259    434.79207   -136.27109   -4215.4261 
   28400   -101037.09   -90822.936    248.00152    20727    226037.53    -25.09599   -29.297452   -81.200346    35.209829    433.73629     23.51119    22.165635    1.1694526    434.90575   -149.87684    -4164.585 
   28500   -101094.64   -90841.703    248.94323    20727    225934.28   -13.981245    155.70055   0.56076589   -198.20506    433.61837    23.509015    22.163585    1.2284129    434.84679   -119.59717   -4181.0089 
   28600   -101116.69   -90783.034      250.903    20727    226236.14    10.261157    9.8940826    99.850106   -78.960719    434.05486    23.512883    22.167232    1.0101684    435.06503   -151.75942   -4200.9848 
   28700   -101030.81   -90797.201    248.47388    20727    226120.22    85.440872   -87.377109    61.943075    281.75665    434.04932    23.507009    22.161693    1.0129384    435.06226   -153.07518   -4193.6831 
   28800   -101080.14   -90760.826    250.55491    20727    226108.29    23.742774   -68.357748    99.957164    39.628904    434.08667    23.505378    22.160156   0.99426681    435.08093   -149.11918   -4233.1572 
   28900    -100977.9   -90751.493    248.29891    20727    225966.22    110.51982    185.03743   -17.323525    163.84556    433.77211    23.506511    22.161224    1.1515431    434.92366   -154.60025   -4246.2794 
   29000   -101054.64   -90809.647    248.75036    20727    226027.78    70.821327     119.2663     204.4574   -111.25972    433.97663    23.504171    22.159018    1.0492827    435.02592   -137.36099    -4204.078 
   29100   -101121.27   -90834.177    249.77248    20727    226424.17    -12.60033    166.43792   -135.29971   -68.939201    433.91262    23.526508    22.180076    1.0812891    434.99391   -109.41577   -4195.1318 
   29200   -101007.59   -90776.982     248.4011    20727    226287.86    18.086874    76.595071    71.098493   -93.432943    434.16464    23.512598    22.166963   0.95528043    435.11992   -139.82164   -4226.6497 
   29300    -101056.5   -90808.988    248.81139    20727    226327.46    24.952642    86.580645     43.87778   -55.600498     434.2897    23.511269     22.16571   0.89275185    435.18245   -116.31367    -4217.664 
   29400   -101033.24   -90724.581    250.29615    20727    226545.25    51.135765    45.257563   -118.75485    226.90458    434.24091    23.523901    22.177618   0.91714711    435.15805   -153.94107   -4260.3661 
   29500   -101014.57   -90779.402    248.51183    20727    226541.42    98.048907     187.2665    165.09482   -58.214601    434.37244    23.520139    22.174072   0.85137891    435.22382   -121.30508   -4242.6354 
   29600   -100867.96   -90709.077    246.65955    20727    226268.04      28.0786   -91.936884    57.386359    118.78632    434.45124    23.503812    22.158679   0.81198193    435.26322   -143.27198   -4294.2969 
   29700   -100963.03   -90668.094    249.96296    20727    226638.69    51.990786    105.66723   -13.450342    63.755466    434.69743    23.516393     22.17054   0.68888643    435.38631   -152.11293    -4320.461 
   29800   -100983.71   -90685.435    250.04388    20727    226403.05    -42.28168   -9.0527942   -264.91871    147.12647    434.33093    23.514079    22.168359   0.87213746    435.20306   -144.38336   -4312.8669 
   29900   -101121.31   -90732.905    252.23243    20727    226588.66   -38.783024   -76.450597   -20.980046   -18.918428    434.44248    23.520695    22.174597    0.8163588    435.25884   -119.09025   -4288.2444 
   30000   -100952.11   -90734.919    248.07535    20727    226466.43    -28.04002     64.53672    111.42574   -260.08252    434.41012    23.515227    22.169441   0.83254103    435.24266   -138.20574   -4271.0251 
   30100   -101057.87   -90729.944    250.76391    20727    226525.56   -22.846719    5.8057798    21.738667   -96.084604    434.78811    23.508071    22.162695    0.6435451    435.43165   -116.92291   -4298.9473 
   30200   -100999.62    -90744.06    249.00675    20727    226345.92    41.913197    48.093764   -16.356813    94.002641    434.55556    23.505034    22.159832    0.7598191    435.31538   -132.99257   -4277.0998 
   30300   -101011.85   -90707.753    250.18523    20727    226187.61   -24.407818    196.72286   -58.749699   -211.19661    434.27613    23.504372    22.159207   0.89953436    435.17567   -119.19484   -4330.4019 
   30400    -101001.6   -90711.268    249.85122    20727    226443.21    35.321438    115.14561   -63.218271     54.03697    434.37836    23.514881    22.169115   0.84841883    435.22678   -125.52946     -4315.73 
   30500   -100941.52   -90727.742    247.99231    20727    226354.53   0.76972957   -162.19597   -29.877836      194.383    434.25299    23.513669    22.167972   0.91110262     435.1641   -127.84432   -4300.0153 
   30600   -100946.82   -90702.022    248.74545    20727    226138.01    18.680694   -115.41515    86.947107    84.510124    434.22694    23.503125    22.158032   0.92412901    435.15107   -134.52225   -4327.5587 
   30700   -100998.15   -90690.174    250.27953    20727     226191.4    -35.43097    67.589054   -103.40045   -70.481511    434.16852    23.507481    22.162138    0.9533379    435.12186   -152.33494   -4318.3707 
   30800   -100849.04   -90639.379    247.89248    20727    226277.21    79.923973    108.80802    44.364826    86.599071    434.08788    23.514124    22.168401   0.99365805    435.08154   -177.51458   -4347.1743 
   30900   -100921.07    -90653.31    249.30308    20727    226247.82    56.324307    74.807142    3.4425113    90.723267    434.10656     23.51209    22.166484   0.98431772    435.09088   -168.45923   -4341.9164 
   31000   -100904.76   -90646.521    249.07196    20727    226079.35    23.544501    76.233961   -93.311705    87.711245    433.83908    23.510579    22.165059    1.1180588    434.95714   -160.30365   -4360.2995 
   31100    -100997.8   -90634.247    251.62903    20727    226119.36   -67.155722   -31.919198   -88.546919   -81.001048     434.0391    23.507241    22.161912      1.01805    435.05715   -151.36154    -4380.682 
   31200   -100999.97   -90623.086    251.95262    20727    225905.81    3.2948032   -42.717818    28.891487     23.71074    433.75345    23.503874    22.158737    1.1608745    434.91433   -153.41628   -4399.7565 
   31300   -101025.01   -90633.223    252.31445    20727    226266.92    2.4047752   -34.393691   -38.314622    79.922639    433.94984    23.517329    22.171422    1.0626815    435.01252   -146.93546   -4385.0712 
   31400   -100905.87   -90602.315    250.17211    20727    226089.37    76.660359    47.121508   -83.645477    266.50505     433.6309    23.516743     22.17087    1.2221492    434.85305   -160.59801   -4412.5014 
   31500   -100944.99   -90636.894    250.28251    20727    226051.27   -46.834053   -6.1619905   -25.051634   -109.28853     433.8757    23.508127    22.162747    1.0997485    434.97545    -162.7838   -4373.3398 
   31600   -100885.59   -90593.793    249.88665    20727    226080.81   -8.3224163   -45.864408    55.533119   -34.635961    433.74302    23.513258    22.167585    1.1660886    434.90911   -178.39793   -4401.9989 
   31700    -100855.7   -90573.199    249.66112    20727    226159.54    119.27788    150.60853    343.47548   -136.25036    433.77703     23.51643    22.170576    1.1490834    434.92612   -171.41632   -4434.5344 
   31800    -100799.3   -90535.708    249.20184    20727    226157.06    3.6740266   -115.74391    354.98758   -228.22158    433.52585    23.523113    22.176875    1.2746727    434.80053   -162.89703   -4475.9396 
   31900   -100815.73   -90582.212    248.47164    20727    226001.59      47.3766    127.61906    3.4766873    11.034049    433.51858    23.515223    22.169438    1.2783107    434.79689   -165.27641    -4435.641 
   32000   -100798.93   -90487.753    250.35713    20727    226071.28   -39.542036    -113.3757    48.848566   -54.098972    433.67248    23.514675     22.16892     1.201359    434.87384   -179.14164   -4510.2429 
   32100    -100943.6   -90563.146     252.0394    20727    225832.01    10.600967    104.14151     133.4712   -205.80981    433.45822    23.508036    22.162661    1.3084881    434.76671     -161.711   -4463.2963 
   32200   -100851.59    -90541.48    250.33128    20727    225958.94   -65.953143   -137.45152   -251.82304    191.41513    433.34576    23.517692    22.171765    1.3647197    434.71048   -150.51738   -4489.7826 
   32300   -100830.94   -90551.967    249.57531    20727    226009.73    56.793339    58.155225   -64.044976    176.26977    433.55398    23.514687    22.168932    1.2606121    434.81459   -143.80444   -4491.2501 
   32400   -100771.48   -90493.416    249.55316    20727    226111.73    46.583265   -45.438144    233.76926   -48.581324    433.70539    23.515886    22.170062    1.1849047     434.8903   -175.88725   -4513.8639 
   32500   -100836.12   -90504.219    250.86032    20727    226087.76   -24.714881   -134.71996    33.540862    27.034458    433.65645    23.515967    22.170138    1.2093743    434.86583   -150.48282   -4527.1829 
   32600    -100893.5   -90512.085    252.06254    20727    226185.27    76.742985    187.27306    82.002401   -39.046506    433.63776    23.521544    22.175397    1.2187209    434.85648   -149.62606   -4525.1155 
   32700   -100817.29   -90509.324    250.27929    20727    226030.21   -19.120983   -136.92752    70.067348    9.4972245     433.5634    23.515497    22.169695    1.2559012     434.8193   -168.21661   -4509.5107 
   32800   -100805.31   -90485.546    250.56566    20727    226118.81   -17.445504    52.394967   -174.09106    69.359586    433.80901    23.513446    22.167762    1.1330945    434.94211   -178.29727   -4523.3485 
   32900   -100828.34   -90482.959    251.18779    20727    226112.57   -46.614357    117.72958   -230.22131   -27.351346    433.58717    23.519136    22.173126    1.2440154    434.83118   -172.86816   -4530.1173 
   33000   -100812.37   -90486.957    250.70282    20727    226182.01    96.372529   -44.394016   -72.793577    406.30518    433.99493    23.511694     22.16611    1.0401356    435.03506   -184.38583   -4521.8164 
   33100   -100820.76   -90444.863    251.92864    20727       226057    66.716875   -140.75029    262.70912    78.191801     434.1093    23.502099    22.157064   0.98294909    435.09225   -189.92897   -4560.5719 
   33200   -100796.23   -90462.275    250.91039    20727    226037.92   -50.090941    -31.42876    379.46883    -498.3129     433.7883    23.509801    22.164325    1.1434504    434.93175   -176.04012    -4555.251 
   33300    -100811.2   -90424.981    252.17922    20727    226094.73   -21.918107   -81.606356    66.182373   -50.330337    433.66476    23.516104    22.170268    1.2052218    434.86998   -180.95124   -4589.3589 
   33400   -100837.16   -90399.793    253.42122    20727    225868.84    25.194059   -58.530531    139.85324   -5.7405293    433.51539    23.508402    22.163007    1.2799044     434.7953   -168.73665   -4636.6522 
   33500   -100796.66   -90373.445    253.07746    20727    225691.02   -8.7129276   -151.13755    120.41687    4.5818984    433.44795    23.500975    22.156004    1.3136237    434.76158   -166.25098   -4667.7551 
[...]
  491800   -95663.802   -83989.887    283.44479    20727    221419.69   -84.715164   -180.29974    103.16554   -177.01129    424.16847     23.53077    22.184095    5.9533661    430.12183    5403.4799   -23877.088 
  491900    -95634.97   -84041.326    281.49579    20727    221514.55    52.735314   -18.532077   -73.274054    250.01207    424.44661    23.528097    22.181575     5.814294    430.26091    5435.5128   -23862.198 
  492000   -95598.138   -84018.299     281.1606    20727    221401.15   -45.346671   -23.494745   -179.40459     66.85932    424.32764    23.525372    22.179005    5.8737799    430.20142    5432.1484   -23883.409 
  492100   -95734.735   -84011.436    284.64385    20727    221233.13   -193.09395   -246.90683   -45.696286   -286.67873    423.93328    23.527378    22.180897    6.0709588    430.00424    5429.2797   -23888.954 
  492200   -95714.785   -84057.066    283.05153    20727    221110.46   -11.544306    37.659962    41.317706   -113.61059    423.95012    23.520388    22.174307    6.0625419    430.01266    5449.0395   -23876.972 
  492300   -95659.013   -83999.606    283.09252    20727    221336.28   -93.733409   -179.04957    78.638082   -180.78874    423.78362    23.537018    22.189985    6.1457904    429.92941    5449.1847   -23924.177 
  492400   -95562.955   -84003.706    280.66067    20727    221180.95    66.250399    198.25489   -84.203391    84.699694    423.88728     23.52588    22.179485    6.0939611    429.98124     5459.889   -23945.985 
  492500    -95633.43   -83954.704     283.5616    20727    221254.23   -135.49286   -316.88337     -90.7168    1.1215901    423.96146    23.527719    22.181218     6.056872    430.01833    5444.5647   -23966.387 
  492600   -95737.368   -83968.573    285.74849    20727    221333.93   -53.616419   -46.390247    167.35757   -281.81658    424.37305    23.520541    22.174451    5.8510736    430.22413    5453.5971   -23967.029 
  492700   -95708.856    -83998.43    284.33128    20727    221324.06   -31.936179    58.043399   -81.171361   -72.680574    424.58515    23.514142    22.168418    5.7450247    430.33018    5477.1102   -23965.513 
  492800   -95694.887   -84025.706    283.32985    20727    221190.74    40.420145     166.6757   -337.63798    292.22271    424.41289    23.511828    22.166237    5.8311574    430.24404    5465.1321   -23934.422 
  492900   -95576.856   -84027.291    280.42554    20727    220931.97   -45.030588   -123.34212   -184.61315    172.86351     423.9268    23.511539    22.165965    6.0742022      430.001    5458.2227   -23931.877 
  493000   -95644.443   -84055.764    281.37525    20727    221108.74    145.24251    101.21001    120.47541    214.04213    423.81919    23.523929    22.177645     6.128006    429.94719    5468.8595   -23917.999 
  493100   -95675.478   -84026.572    282.83756    20727    221173.82   -60.374695   -162.06151    191.65906   -210.72163    423.82876    23.527125    22.180658     6.123222    429.95198    5445.2782   -23913.896 
  493200   -95556.804   -84037.656      279.687    20727    221094.39     212.7316     298.3204    105.08213    234.79226     423.6882    23.526802    22.180354    6.1935022     429.8817    5455.7745   -23929.542 
  493300   -95744.507   -84015.094    284.79228    20727    220923.22   -82.715648   -160.69089   -272.28103    184.82497    423.55019    23.521524    22.175378     6.262507    429.81269    5458.6216   -23950.854 
  493400   -95807.785   -84064.695    285.12437    20727    221104.22    28.392233    190.72778   -19.901498   -85.649586     423.7209    23.526417    22.179991    6.1771479    429.89805    5456.9246   -23900.331 
  493500    -95631.62   -84054.252    281.10059    20727    220879.76    13.259056    5.3899953    95.044671     -60.6575    423.73906    23.513968    22.168254    6.1680676    429.90713    5467.4692   -23930.459 
  493600   -95621.011   -84045.913    281.04549    20727    220893.87    54.746672    283.29317   -284.90835    165.85519    424.10196    23.504656    22.159475    5.9866218    430.08858    5443.9823   -23917.177 
  493700   -95729.958   -84031.098    284.05045    20727    221007.63    59.849114   -98.420162   -167.94547    445.91298    424.11258    23.510414    22.164903    5.9813083    430.09389    5439.6563   -23926.254 
  493800   -95680.335   -84020.996    283.09089    20727    221188.95    67.578063    -63.37866    -23.68519    289.79804    423.87553    23.526632    22.180193    6.0998367    429.97536    5438.3923   -23930.233 
  493900    -95635.68   -83994.626     282.6469    20727    221530.78   -47.292379   -22.988153   -438.09815    319.20917    424.13424    23.537622    22.190555     5.970479    430.10472    5451.9719   -23952.339 
  494000   -95729.687   -84014.979    284.43524    20727    221425.88    82.509955    103.63541    16.606968    127.28748    424.37408    23.525398     22.17903    5.8505611    430.22464    5454.5959   -23946.871 
  494100   -95833.287   -84001.246    287.28411    20727    221611.41   -142.24352   -119.05423   -47.894464   -259.78187    424.87487    23.521378     22.17524    5.6001644    430.47504    5449.0748   -23943.398 
  494200   -95731.292   -84027.514    284.16986    20727    221335.65   -2.5829424   -186.06501    243.41178   -65.095593    424.42262    23.519259    22.173243    5.8262911    430.24891    5455.8828   -23938.246 
  494300   -95660.472   -84035.049     282.2674    20727    221260.81    15.094327   -97.209228    140.59281    1.8993982    424.28159     23.51919    22.173178     5.896805     430.1784    5460.4316   -23940.588 
  494400   -95788.623   -83986.702    286.55281    20727    221086.23     -64.5394   -141.95494   -47.390246   -4.2730176    423.94245    23.519312    22.173292    6.0663773    430.00882    5441.1965   -23974.386 
  494500    -95695.46   -84003.699    283.87809    20727    221094.35   -37.392319   -9.5612621   -90.730527   -11.885167    423.76794    23.524586    22.178265    6.1536312    429.92157    5472.5983   -23989.264 
  494600   -95734.958   -84046.932    283.78742    20727    221338.48    70.839083    -19.13586    43.435835    188.21727    424.09476    23.528499    22.181954      5.99022    430.08498    5467.7969   -23942.122 
  494700   -95729.892    -84025.02    284.19642    20727    221211.78   -51.197726    18.154874    269.90236   -441.65041    424.02828    23.523608    22.177342    6.0234591    430.05174    5461.0084   -23954.856 
  494800   -95796.967   -84051.897    285.17245    20727     221262.6    136.98814    74.378584    212.98587    123.59997    423.81065    23.532349    22.185584     6.132276    429.94292    5470.8985   -23948.551 
  494900    -95716.38    -84088.98    282.31541    20727    221367.88    94.973298    28.062508   -81.189421    338.04681    424.08442    23.530348    22.183697     5.995391    430.07981    5481.1214   -23914.581 
  495000   -95740.223   -84091.174    282.84104    20727    221456.31   -34.080269   -7.0749247    74.058439   -169.22432    424.28303    23.529539    22.182934    5.8960873    430.17911    5490.4845   -23915.911 
  495100   -95683.498   -84043.954    282.61025    20727    221456.77   -59.985965   -63.539988   -155.46558    39.047672    424.42587    23.525604    22.179224    5.8246669    430.25053    5472.3958   -23945.354 
  495200   -95638.196    -84021.19    282.06302    20727    221793.01    40.556513    73.986079    101.97976   -54.296303    424.29524     23.54708    22.199471    5.8899806    430.18522    5467.1744   -23956.317 
  495300   -95690.415   -84068.239    282.18856    20727    221691.31   -9.7919428    166.14748   -105.24695   -90.276359    424.42053    23.538206    22.191105     5.827335    430.24787     5483.183   -23926.677 
  495400   -95741.106   -84020.434    284.58004    20727     221810.8    -61.74598   -50.690271   -136.10543    1.5577652    424.64843     23.53823    22.191127    5.7133829    430.36182    5499.0673    -23987.48 
  495500   -95674.587   -84006.684    283.29879    20727    221710.63   -170.18547    61.864117   -364.35228   -208.06823    424.83735    23.527681    22.181183    5.6189253    430.45627    5507.2461   -24009.404 
  495600   -95757.001   -83992.813    285.63664    20727    221600.17   -133.50109   -268.78057    28.211696   -159.93438    424.93233     23.51919    22.173178    5.5714325    430.50377    5485.2525   -24009.022 
  495700   -95584.686   -83998.157    281.32302    20727    221647.99    8.0021622    83.855439   -38.511056   -21.337896    424.73027    23.527323    22.180844    5.6724634    430.40274    5491.6119   -24016.756 
  495800   -95568.862   -84014.679    280.53765    20727    221477.41    23.643249   -96.224683    230.50726   -63.352825    424.62719    23.521122    22.174999    5.7240069    430.35119    5496.8072   -24012.811 
  495900   -95670.922   -84032.504    282.58292    20727    221656.56   -15.390872    118.68834    -170.2278    5.3668406    424.55501    23.532633    22.185851    5.7600957     430.3151    5510.4007   -24001.557 
  496000   -95713.973   -84022.397    283.87358    20727    221646.91    36.244941   -172.19617    193.74754    87.183453    424.76701    23.526247    22.179831     5.654094    430.42111    5498.5615   -24005.832 
  496100   -95644.658   -83972.861    283.39335    20727    221816.97   -96.790967   -131.59889    116.60023   -275.37425    425.33096    23.519663    22.173623    5.3721184    430.70308    5473.3035   -24021.743 
  496200   -95640.946   -83988.779    282.91672    20727    221689.14    109.60871   -9.1564885    267.13689    70.845738    425.36501    23.511944    22.166346    5.3550937    430.72011    5479.3488   -24026.619 
  496300   -95596.603   -83967.996    282.34469    20727    221479.29   -34.921525    189.25241    18.623132   -312.64011    425.14194    23.506978    22.161664      5.46663    430.60857    5470.3595   -24038.863 
  496400   -95704.336     -84001.5    284.14697    20727    221590.36   -35.030789   -131.67188    88.530831    -61.95132    425.25871    23.509643    22.164177    5.4082457    430.66695    5491.1012   -24024.531 
  496500   -95706.413   -84026.053    283.60128    20727     221423.1   -100.46338   -7.1081644   -191.22136   -103.06061    424.95369    23.509201     22.16376    5.5607546    430.51445    5498.2291   -24011.732 
  496600   -95727.285   -84000.429    284.73019    20727    221763.08    150.90039    120.55929    82.874534    249.26734    425.55842    23.510521    22.165004    5.2583914    430.81681    5497.3598   -24038.038 
  496700   -95597.704   -83987.665    281.89387    20727    221859.96   -68.836186   -232.56785    192.55628   -166.49699    425.32977    23.521975    22.175803    5.3727157    430.70248    5500.8679   -24040.752 
  496800   -95657.053   -83989.178    283.29813    20727    221705.28    44.340262   -108.87791   -144.96623    386.86493    425.16035    23.518458    22.172488    5.4574234    430.61778    5499.7812   -24050.456 
  496900   -95663.009   -84026.835    282.52842    20727    221528.25    12.277701   -30.206308   -147.76055    214.79996    425.16274    23.509001    22.163571    5.4562279    430.61897    5486.0457   -24006.434 
  497000    -95649.04   -84009.828    282.60219    20727    222025.43    136.50655    332.07744     298.1634   -220.72119    425.57165    23.524057    22.177766    5.2517727    430.82343    5504.2228   -24034.268 
  497100   -95731.481   -84041.063    283.84546    20727    221567.27      71.2142   -39.500015    249.38766    3.7549514    425.41129    23.504202    22.159047    5.3319572    430.74324    5512.2921   -24025.893 
  497200    -95578.88   -83979.259    281.64092    20727    221741.39   -7.4489075   -163.40006    32.835441    108.21789     425.5789    23.508805    22.163387    5.2481521    430.82705    5501.1433   -24065.675 
  497300   -95663.915   -84008.563    282.99406    20727    221654.25    56.970788  0.037879326    42.133047    128.74144    425.70587     23.50068    22.155726    5.1846664    430.89053     5517.767   -24063.208 
  497400   -95677.759    -83978.23    284.06668    20727    221622.05    22.839659   -59.167357    65.344455     62.34188    425.63808    23.500844    22.155881    5.2185594    430.85664     5512.933   -24090.045 
  497500   -95642.727    -84014.43    282.33718    20727    221662.16    1.4192555    178.20373   -230.60981    56.663847    425.49874    23.506819    22.161514    5.2882296    430.78697    5525.8685   -24065.665 
  497600   -95792.412   -84016.804    285.91389    20727    221942.11   -11.905187   -52.436367     136.4265   -119.70569    425.34055    23.526032    22.179628    5.3673246    430.70788    5513.6384    -24044.87 
  497700   -95582.989    -84010.36    280.98555    20727    222008.04    13.452264    88.962343   -31.535686   -17.069865    425.41122    23.527571    22.181079    5.3319885    430.74321    5517.5541   -24053.669 
  497800   -95633.512   -83978.187    282.99342    20727    222063.06    136.05309    297.85822   -91.249016    201.55007    425.71933     23.52197    22.175798    5.1779374    430.89726    5518.2641   -24090.085 
  497900   -95564.825   -83965.431    281.63538    20727    222123.76   -17.646437   -117.57765   -110.82022    175.45855    426.12184    23.514071    22.168352     4.976681    431.09852    5516.8841   -24093.718 
  498000   -95680.029   -83941.574    285.01182    20727    222134.17    64.633672    28.321923    -83.35914    248.93823    425.83242    23.522612    22.176403    5.1213913    430.95381    5498.0687   -24105.093 
  498100   -95778.655   -83953.142     287.1256    20727    222211.43   -90.400517   -127.29346   -43.111757   -100.79634    425.70436     23.53024    22.183595    5.1854175    430.88978    5515.0075   -24105.661 
  498200   -95697.959   -83964.103    284.90017    20727     222199.8    -8.883384   -169.49674    -133.0216    275.86818    425.55444    23.533769    22.186922    5.2603786    430.81482     5508.222   -24092.181 
  498300   -95671.326    -83995.82    283.48341    20727     221830.7   -15.145558    156.89442    17.096773   -219.42787    425.24117    23.522874    22.176651    5.4170137    430.65819    5534.5357   -24100.166 
  498400   -95704.375   -84007.462    284.00317    20727    221695.82    24.972882   -37.440995    194.46263   -82.102987    425.18249    23.517344    22.171437    5.4463532    430.62885    5529.7339   -24088.803 
  498500   -95626.206   -83975.638    282.87791    20727    221859.75   -34.229254    114.63145    -140.7294   -76.589813     425.2067    23.525368    22.179002    5.4342496    430.64095    5521.6855   -24108.517 
  498600   -95702.964   -84006.057    284.00303    20727    221389.57    27.506569    126.80026   -41.567375    -2.713178    425.01168    23.505818     22.16057    5.5317605    430.54344    5534.1335   -24111.836 
  498700   -95725.807   -84014.977     284.3411    20727    221701.79   -48.733234    36.448432    26.356868     -209.005    425.21929    23.516643    22.170777    5.4279571    430.64724    5548.0979   -24104.023 
  498800   -95777.373   -84024.904    285.35209    20727    221892.74    -121.3044   -226.93533   -151.11097    14.133111     425.0439    23.531622    22.184898      5.51565    430.55955    5548.4965   -24085.871 
  498900   -95750.001   -84044.005    284.22373    20727    221548.52   -2.3847546   -68.244209   -83.451356     144.5413     424.4808    23.528954    22.182382    5.7971985      430.278     5543.565   -24082.004 
  499000   -95701.226   -84111.052    281.41153    20727    221369.26   -32.358573   -128.21837   -67.386224    98.528874    424.44195     23.52051    22.174421    5.8166272    430.25857    5552.7807   -24029.682 
  499100   -95799.051   -84119.704    283.57669    20727    221433.56     79.36362    116.73051   -478.07145     599.4318    424.64884    23.518194    22.172238    5.7131811    430.36202    5553.1497    -24026.36 
  499200   -95743.714   -84087.071     283.0254    20727    221177.72    68.822678     44.34977    132.77188    29.346388    424.38265    23.511974    22.166374    5.8462743    430.22893    5531.3796   -24046.467 
  499300   -95690.776   -84007.951    283.66112    20727       221482    60.222942    101.86551    2.0902992    76.713016     424.7506    23.517948    22.172007    5.6623012     430.4129    5532.1865   -24113.712 
  499400   -95664.459   -84015.417    282.84087    20727    221371.71   -47.458132    62.669344   -35.643093   -169.40065    424.61995    23.515709    22.169896    5.7276264    430.34757     5548.701   -24123.346 
  499500   -95781.173   -84022.261    285.50853    20727    221455.14   -109.70029   -75.494057    183.28736   -436.89418    424.47978    23.524023    22.177733    5.7977078    430.27749    5543.2318   -24106.583 
  499600   -95610.854   -83975.183    282.51621    20727    221228.69   -6.3981368     82.72908   -395.33974    293.41625     424.1106    23.522224    22.176037    5.9822988     430.0929    5530.1873    -24154.81 
  499700   -95707.468   -83982.087    284.69439    20727    221320.15   -1.3754898   -174.08767   -39.752008    209.71321    424.31957    23.521291    22.175158    5.8778145    430.19739    5544.4635   -24162.664 
  499800   -95618.977   -83993.665    282.26468    20727    220804.75     56.27376    189.58589    116.71088   -137.47549    423.71108    23.510752    22.165222    6.1820614    429.89314    5528.1299   -24155.146 
  499900   -95709.319   -83948.464     285.5557    20727    221216.74    28.411421   -116.86002    5.8408913    196.25339    423.91603    23.526986    22.180527    6.0795844    429.99562    5537.7707   -24199.468 
  500000   -95643.308    -83954.98    283.79472    20727    220951.01    23.669686   -46.794271    222.56699   -104.76367    423.33858    23.528882    22.182314    6.3683107    429.70689      5549.69   -24214.672 
Loop time of 70805.7 on 32 procs for 500000 steps with 20727 atoms

Performance: 1.220 ns/day, 19.668 hours/ns, 7.062 timesteps/s
97.4% CPU use with 32 MPI tasks x no OpenMP threads

MPI task timing breakdown:
Section |  min time  |  avg time  |  max time  |%varavg| %total
---------------------------------------------------------------
Pair    | 13584      | 14578      | 16284      | 771.5 | 20.59
Bond    | 0.7995     | 0.88075    | 1.1406     |   8.1 |  0.00
Kspace  | 13419      | 15129      | 16123      | 759.1 | 21.37
Neigh   | 10542      | 12621      | 14510      |1482.7 | 17.82
Comm    | 609.01     | 1803.4     | 4075.4     |2643.8 |  2.55
Output  | 8.2267     | 31.565     | 43.249     | 201.4 |  0.04
Modify  | 25106      | 26558      | 29452      | 861.1 | 37.51
Other   |            | 84.19      |            |       |  0.12

Nlocal:    647.719 ave 707 max 598 min
Histogram: 1 4 4 11 2 1 0 3 4 2
Nghost:    7264.53 ave 7846 max 6742 min
Histogram: 6 5 2 1 2 4 1 3 4 4
Neighs:    238518 ave 277986 max 215050 min
Histogram: 5 9 7 0 1 1 0 4 3 2
FullNghs:  477035 ave 554638 max 425620 min
Histogram: 2 9 9 1 1 1 0 4 3 2

Total # of neighbors = 15265112
Ave neighs/atom = 736.484
Ave special neighs/atom = 2
Neighbor list builds = 500000
Dangerous builds not checked
write_data production.R1
PPPM initialization ...
  extracting TIP4P info from pair style
WARNING: Using 12-bit tables for long-range coulomb (../kspace.cpp:316)
  G vector (1/distance) = 0.345915
  grid = 400 48 48
  stencil order = 5
  estimated absolute RMS force accuracy = 0.000401804
  estimated relative force accuracy = 1.21002e-06
  using double precision FFTs
  3d grid and FFT values/proc = 67260 38400
write_restart restartproduction.R1
PPPM initialization ...
  extracting TIP4P info from pair style
WARNING: Using 12-bit tables for long-range coulomb (../kspace.cpp:316)
  G vector (1/distance) = 0.345915
  grid = 400 48 48
  stencil order = 5
  estimated absolute RMS force accuracy = 0.000401804
  estimated relative force accuracy = 1.21002e-06
  using double precision FFTs
  3d grid and FFT values/proc = 67260 38400
Total wall time: 19:40:06
