LAMMPS (30 Jul 2016)
# Sets up LAMMPS simulation for transient melting of ice: TIP4P/Ice
# Ensure cold thermostats do not move
# Thinbox: 16x1x1
# Defects
# Order param l=2

#### setting MD parameters ####
units real
boundary p p p
atom_style full

# read ice box in restart file
#read_data ice-ih-restart.data
read_restart restart.state
  orthogonal box = (0.44356 0.0239351 0.0225653) to (435.632 23.5073 22.1619)
  32 by 1 by 1 MPI processor grid
  20736 atoms
  13824 bonds
  6912 angles
  2 = max # of 1-2 neighbors
  1 = max # of 1-3 neighbors
  1 = max # of 1-4 neighbors
  2 = max # of special neighbors

#replicate 16 boxes, 16x1x1


#### force field definition ####
pair_style      lj/cut/tip4p/long 2 1 1 1 0.1577 10.0
pair_modify	tail yes

kspace_style	pppm/tip4p 1.0e-6

bond_style	harmonic
angle_style	harmonic
dihedral_style	none
improper_style	none

bond_coeff	1 450.0 0.9572
angle_coeff	1 55.0 104.52


# reset pair coeff
pair_coeff	* * 0.0 0.0

#OO
pair_coeff	2 2 0.21085 3.1668
#OH
pair_coeff	* 1 0.0000 0.0000

neighbor        2.0 bin
neigh_modify    every 1 delay 1 check no

timestep	2.0
fix		constraints all shake 0.000001 20 0 b 1 a 1
  0 = # of size 2 clusters
  0 = # of size 3 clusters
  0 = # of size 4 clusters
  6912 = # of frozen angles

group water type 1 2
20736 atoms in group water

#*********** SIMULATION PARAMETER TO ADJUST ****************
#Box dimensions
variable lx equal lx
variable ly equal ly
variable lz equal lz

### Temperature of the hot and cold regions ####
variable thi equal 375
variable tlo equal 215
variable runpressure equal 0.986923
# Configuration equilibrated in density and temperature

# Define dx here

variable lx equal lx
variable ly equal ly
variable lz equal lz

variable xlo equal xlo
variable xhi equal xhi


variable dx equal 2.0

### ADD IN DEFECTS AT THE CENTRE OF THE HOT THERMOSTAT ###
variable x1 equal ${lx}/4.0
variable x1 equal 435.188079064568/4.0
variable y1 equal ${ly}/2.0
variable y1 equal 23.4833297699202/2.0
variable z1 equal ${lz}/2.0
variable z1 equal 22.1393694023606/2.0

region kill1 sphere ${x1} ${y1} ${z1} 3
region kill1 sphere 108.797019766142 ${y1} ${z1} 3
region kill1 sphere 108.797019766142 11.7416648849601 ${z1} 3
region kill1 sphere 108.797019766142 11.7416648849601 11.0696847011803 3
delete_atoms region kill1 compress no bond yes mol yes
Deleted 15 atoms, new total = 20721
Deleted 10 bonds, new total = 13814
Deleted 5 angles, new total = 6907




variable thip equal ${thi}*2.0/3.0
variable thip equal 375*2.0/3.0
variable tlop equal ${tlo}*2.0/3.0
variable tlop equal 215*2.0/3.0
variable cbl equal ${lx}*3.0/4.0-${dx}
variable cbl equal 435.188079064568*3.0/4.0-${dx}
variable cbl equal 435.188079064568*3.0/4.0-2
variable cbh equal ${lx}*3.0/4.0+${dx}
variable cbh equal 435.188079064568*3.0/4.0+${dx}
variable cbh equal 435.188079064568*3.0/4.0+2
variable hbl equal ${lx}*1.0/4.0-${dx}
variable hbl equal 435.188079064568*1.0/4.0-${dx}
variable hbl equal 435.188079064568*1.0/4.0-2
variable hbh equal ${lx}*1.0/4.0+${dx}
variable hbh equal 435.188079064568*1.0/4.0+${dx}
variable hbh equal 435.188079064568*1.0/4.0+2


#***************************************************
## EQUILIBRATION PERIOD - to reach the steady state ###
#run 0

#reset the timestep to start your production run
reset_timestep 0

# define a group to perform averages
#group s1 type 1
###*** SYSTEM THERMOSTATTING: HOT and COLD regions ***###

fix NVE all nve
fix PRESS all press/berendsen aniso ${runpressure} ${runpressure} 500000 couple yz
fix PRESS all press/berendsen aniso 0.986923 ${runpressure} 500000 couple yz
fix PRESS all press/berendsen aniso 0.986923 0.986923 500000 couple yz


### Apply THERMOSTATS ###

#set up the "hot region" in the middle of the box
region hot block ${hbl} ${hbh} 0 ${ly} 0 ${lz} units box
region hot block 106.797019766142 ${hbh} 0 ${ly} 0 ${lz} units box
region hot block 106.797019766142 110.797019766142 0 ${ly} 0 ${lz} units box
region hot block 106.797019766142 110.797019766142 0 23.4833297699202 0 ${lz} units box
region hot block 106.797019766142 110.797019766142 0 23.4833297699202 0 22.1393694023606 units box


#set up the "cold region" at the left end of the box
region cold block ${cbl} ${cbh} 0 ${ly} 0 ${lz} units box
region cold block 324.391059298426 ${cbh} 0 ${ly} 0 ${lz} units box
region cold block 324.391059298426 328.391059298426 0 ${ly} 0 ${lz} units box
region cold block 324.391059298426 328.391059298426 0 23.4833297699202 0 ${lz} units box
region cold block 324.391059298426 328.391059298426 0 23.4833297699202 0 22.1393694023606 units box

#set up the "cold region" at the right end of the box
#region cold2 block ${h2bl} ${xhi} 0 ${ly} 0 ${lz} units box


#Cold regions  unification
#region cold union 2 cold1 cold2 units box

#Create group of cold molecules
####group cool_ice region cold
####group cool_ice include molecule

####compute cold_temp cool_ice temp
####fix cold_rescale water temp/rescale 1 ${tlo} ${tlo} 0.0001 1.0
####fix_modify cold_rescale temp cold_temp

#this calculates the temperature using only the atoms in the "hot region"
#compute hot_temp all temp/region hot

# calculate the temperature using only WATER in the "hot region"
compute hot_temp water temp/region hot

#this calculates the temperature using only WATER in the "cold region"
compute cold_temp water temp/region cold


#set up a basic velocity rescale for the hot region WATER with thip
fix hot_rescale water temp/rescale 1 ${thip} ${thip} 1.0 1.0
fix hot_rescale water temp/rescale 1 250 ${thip} 1.0 1.0
fix hot_rescale water temp/rescale 1 250 250 1.0 1.0
#change the thermostat to only act on the "hot region"
#this is done by passing it the "hot temp" compute that we defined above
fix_modify hot_rescale temp hot_temp

#set up a basic velocity rescale for the cold region
fix cold_rescale water temp/rescale 1 ${tlop} ${tlop} 1.0 1.0
fix cold_rescale water temp/rescale 1 143.333333333333 ${tlop} 1.0 1.0
fix cold_rescale water temp/rescale 1 143.333333333333 143.333333333333 1.0 1.0
#change the thermostat to only act on the "cold region"
#this is done by passing it the "cold temp" compute that we defined above
fix_modify cold_rescale temp cold_temp

### Ensure MOMENTUM CONSERVATION ###

#ensure that linear momentum is conserved despite the "thermostatting" by velocity rescaling
fix cons_mom all momentum 1 linear 1 1 1


thermo 100
thermo_style custom step pe etotal temp atoms vol press pxx pyy pzz lx ly lz xlo xhi f_cold_rescale f_hot_rescale

group ox type 2
6907 atoms in group ox
group hy type 1
13814 atoms in group hy
compute KE all ke/atom
variable TEMP atom c_KE*4186.8/(1.3806488*6.02214129)

compute cc1 all chunk/atom bin/1d x center 2 units box
#fix TPROFILE all ave/chunk 1 500 500 cc1 v_TEMP density/number file temp.dat
fix TPROFILEox ox ave/chunk 1 500 500 cc1 v_TEMP density/number file temp-ox.dat
fix TPROFILEhy hy ave/chunk 1 500 500 cc1 v_TEMP density/number file temp-hy.dat

compute orderparam ox orientorder/atom degrees 1 2 nnn 4 cutoff 3.5
compute cc2 ox chunk/atom bin/1d x center 2 units box
#fix ORDERPARAM all ave/chunk 1 500 500 cc2 c_orderparam[1] file order-param.dat
fix ORDERPARAM all ave/chunk 1 500 500 cc2 c_orderparam[1] file order-param.dat

restart 50000 config.restart

run 500000
PPPM initialization ...
  extracting TIP4P info from pair style
WARNING: Using 12-bit tables for long-range coulomb (../kspace.cpp:316)
  G vector (1/distance) = 0.345603
  grid = 405 48 48
  stencil order = 5
  estimated absolute RMS force accuracy = 0.000405879
  estimated relative force accuracy = 1.22229e-06
  using double precision FFTs
  3d grid and FFT values/proc = 67260 38880
Neighbor list info ...
  2 neighbor list requests
  update every 1 steps, delay 1 steps, check no
  max neighbors/atom: 2000, page size: 100000
  master list distance cutoff = 12.3154
  ghost atom cutoff = 12.3154
  binsize = 6.1577 -> bins = 71 4 4
Memory usage per processor = 12.7785 Mbytes
Step PotEng TotEng Temp Atoms Volume Press Pxx Pyy Pzz Lx Ly Lz Xlo Xhi cold_res hot_resc 
       0   -103775.07   -94906.057    215.40372    20721    226256.94    47.162491   -29.736581    134.71676    36.507297    435.18808     23.48333    22.139369   0.44356047    435.63164            0            0 
     100   -103619.21   -94710.213    216.37458    20721    226254.22    14.893134   -31.731188    23.918873    52.491716    435.15717    23.484023    22.140023   0.45901659    435.61618    31.015689   -223.89297 
     200   -103640.78   -94650.442    218.35023    20721    226370.77    16.254184   -15.730949   -40.201939    104.69544    435.15845    23.490036    22.145692    0.4583755    435.61682    15.925353   -267.35266 
     300   -103699.18   -94626.518    220.34971    20721    226451.52   -53.196213    62.535111   -218.54774   -3.5760125    435.17531     23.49377    22.149212    0.4499437    435.62526    31.156822   -303.13876 
     400    -103595.9   -94563.069     219.3822    20721    226419.57    42.831669     86.40667   -74.945453    117.03379    435.21098     23.49115    22.146742   0.43210852    435.64309    29.122948   -370.33993 
     500   -103462.85   -94525.916    217.05316    20721    226392.58    34.375108    193.20542    144.20538   -234.28548    435.25582    23.488539    22.144281   0.40968816    435.66551    29.803271   -405.92065 
     600   -103504.98   -94499.368    218.72112    20721    226503.79     50.97033    30.990418    159.82395   -37.903384    435.33614    23.492141    22.147676   0.36953119    435.70567    21.144501    -424.1249 
     700   -103470.79   -94443.867    219.23882    20721    226554.87   -73.624455    -66.62409   -103.33536   -50.913918    435.26038    23.496834    22.152101   0.40741015    435.66779    32.233927    -482.8623 
     800   -103501.78   -94425.122    220.44661    20721    226537.64   -7.1515551    192.42384   -241.73332    27.854811    435.42281    23.491557    22.147126   0.32619507      435.749    13.752853    -488.5184 
     900    -103471.4    -94351.03    221.50838    20721     226553.8   -17.571425    199.83076   -442.77852    190.23348     435.5006    23.490297    22.145938   0.28729974     435.7879   -15.465822   -532.92797 
    1000   -103405.87   -94330.639    220.41217    20721    226451.79    7.6117665    14.034463    82.022389   -73.221553     435.2848    23.490829     22.14644   0.39520172       435.68   -6.0691103   -568.40415 
    1100   -103429.51   -94338.694    220.79066    20721    226468.53   -2.2179332   -104.50898   -103.11589    200.97107    435.34156    23.490166    22.145814   0.36681905    435.70838    4.1399076   -569.02357 
    1200    -103390.2   -94274.553     221.3937    20721    226592.83     -6.18493   -33.382495    61.421063   -46.593358    435.29497    23.497869    22.153076   0.39011348    435.68509    -18.80986    -608.9872 
    1300   -103471.91   -94320.276    222.26772    20721    226595.62   -25.187837   -7.3681762   -78.846278    10.650942    435.40213    23.495122    22.150486   0.33653395    435.73867    14.299534    -595.6964 
    1400   -103376.32   -94287.601    220.73962    20721    226678.47    38.265123    70.196299    77.303947   -32.704876    435.33457     23.50124    22.156255   0.37031608    435.70488    25.150593   -641.57567 
    1500   -103440.84   -94216.161    224.04162    20721    226505.18   -49.648828    15.265177   -58.842507   -105.36916    435.24302    23.494725    22.150113   0.41609093    435.65911    2.8435475   -690.87537 
    1600   -103379.85   -94149.164    224.18752    20721    226616.44    15.949302    113.27561   -31.617897   -33.809805    435.41234    23.495925    22.151244   0.33142929    435.74377   -5.9638421   -750.39443 
    1700   -103344.75   -94171.381    222.79561    20721    226433.05     23.40584    6.7338191    85.686248   -22.202546    435.18699    23.492497    22.148012   0.44410547    435.63109   -22.385851   -716.71777 
    1800      -103311   -94115.122    223.34235    20721    226623.22   -20.945325    53.067437  0.034553604   -115.93796    435.32575    23.498613    22.153778   0.37472415    435.70048   -9.5210724   -779.32065 
    1900   -103336.22   -94126.108    223.68806    20721    226753.43   -29.802767   -58.320436   -40.513576    9.4257104    435.06092    23.512516    22.166885   0.50713788    435.56806   -12.921249   -763.14431 
    2000   -103303.31   -94065.245    224.36689    20721    226638.46     -22.2004   -50.376639   -32.344141    16.119581    435.32644    23.499385    22.154506     0.374382    435.70082   -15.207283   -826.01768 
    2100   -103262.73   -94053.668    223.66242    20721    226540.08   -13.756452    138.57866    62.357017   -242.20503    435.16887    23.498537    22.153707   0.45316503    435.62203   -11.375523   -844.72964 
    2200   -103260.04   -94069.195    223.22007    20721    226646.64   -34.287652    31.501616   -57.480036   -76.884535    435.39655    23.497917    22.153122   0.33932742    435.73587    3.9461588   -840.49497 
    2300   -103203.82   -94073.244    221.75613    20721    226663.28   -30.594935    -67.15199   -267.17712    242.54431    435.28886    23.501686    22.156675    0.3931724    435.68203    11.738269   -844.65975 
    2400   -103226.23   -94027.184    223.41921    20721    226665.95   -50.556015   -154.75165    61.286574    -58.20297    435.54966    23.494787    22.150171   0.26277153    435.81243    15.829223   -896.79963 
    2500   -103252.13   -93963.235    225.60144    20721    226748.95    -39.14017   -20.291646     158.6379   -255.76676    435.54107     23.49932    22.154445   0.26706342    435.80814   -3.6376408    -940.6548 
    2600   -103164.05   -93950.529    223.77084    20721    226558.35   -102.40248   -27.384562   -373.24682    93.423925    435.44428    23.492052    22.147593   0.31546125    435.75974    10.953541   -969.99556 
    2700   -103245.81   -93948.808     225.7982    20721    226733.52    31.321802   -38.703012   -169.09691    301.76533    435.45486    23.500847    22.155884   0.31017158    435.76503    7.7877563    -973.6455 
    2800    -103173.4   -93963.184    223.69046    20721    226484.72    39.077522    182.59256   -111.62256    46.262564     435.3403    23.491039    22.146638   0.36745058    435.70775    2.5470748    -959.2557 
    2900   -103213.99   -93932.526    225.42084    20721    226436.52    35.665504   -95.283637    69.408636    132.87151    435.51073    23.483943    22.139948   0.28223354    435.79297   -12.984034   -977.48683 
    3000   -103204.86   -93903.056    225.91488    20721    226594.94   -6.8029584   -93.189424     26.95503    45.825519    435.42801    23.494388    22.149795   0.32359705     435.7516   -8.8468483   -1007.5386 
    3100   -103166.07   -93935.606    224.18222    20721    226456.86    88.066524    51.713527    46.234826    166.25122    435.20907    23.493136    22.148614   0.43306333    435.64214    9.7980578   -1001.1301 
    3200   -103247.77    -93880.35    227.50862    20721    226501.27   -41.940513   -99.582238   -106.81263    80.573328     435.2808    23.493503    22.148961   0.39719893      435.678    15.078712   -1054.4896 
    3300   -103132.95   -93886.357    224.57405    20721    226376.07    48.438563   -57.060452   -153.85613    356.23227    435.18354    23.489634    22.145312    0.4458277    435.62937   -19.465556   -1022.7111 
    3400   -103114.02   -93869.583    224.52165    20721     226459.4    16.925481     5.531795     16.36756    28.877089    435.42022    23.487571    22.143367   0.32748939    435.74771   -11.108991   -1044.7553 
    3500   -103135.47    -93862.91    225.20459    20721    226311.23    4.6823665    26.332317   -16.105838    3.8206206    435.12106    23.487955     22.14373   0.47706826    435.59813    -10.55819    -1055.477 
    3600   -103224.66   -93832.928    228.09907    20721     226442.7    19.613679    7.8364404   -63.504241    114.50884    435.15766    23.493789     22.14923   0.45877248    435.61643   -30.153142    -1063.839 
    3700    -103117.8   -93807.282    226.12652    20721    226305.62   -11.958536   -93.580312    19.661252    38.043452    435.05728    23.489386    22.145079   0.50896038    435.56624   -24.330067   -1097.4731 
    3800   -103254.04   -93850.425    228.38759    20721    226314.22   -6.4695089   -5.3969585   -40.290399    26.278831    435.23024    23.485165    22.141099    0.4224813    435.65272   -7.8101537   -1074.4773 
    3900   -103092.33    -93821.05    225.17359    20721    226500.49    53.662486    167.18242   -127.00358    120.80862    435.27646     23.49358    22.149033    0.3993709    435.67583   -13.056945   -1095.9747 
    4000   -103094.97   -93778.293    226.27611    20721    226601.91    9.6302185   -22.759732   -153.95157    205.60196    435.25211    23.499497    22.154611   0.41154686    435.66365    5.1698513   -1152.6589 
    4100   -103149.35   -93788.546    227.34789    20721     226744.1     42.90214   -9.8511329   -152.53467    291.09222    435.32321    23.504948    22.159751    0.3759959     435.6992     13.89252   -1149.1238 
    4200   -103196.25   -93773.768    228.84583    20721    226547.23   -105.75045    31.146834    -23.16341   -325.23479    435.20145    23.498028    22.153227   0.43687258    435.63833    10.507593   -1161.5006 
    4300   -103143.56    -93762.09    227.84974    20721    226601.54   -76.099842   -95.698167    182.37327   -314.97463    435.34075    23.497085    22.152337   0.36722645    435.70797   -15.348777    -1146.751 
    4400   -103086.39   -93707.036    227.79845    20721    226649.74    -67.55476    -91.38574   -32.258496   -79.020043    435.29932    23.500702    22.155747   0.38794195    435.68726   -8.6745195   -1207.2891 
    4500   -103065.37   -93710.546    227.20263    20721    226698.03    25.903227    30.497067   -216.07591    263.28853    435.50954    23.497532    22.152759   0.28283153    435.79237    6.8447412   -1223.7829 
    4600   -103067.32    -93706.74    227.34234    20721    226672.37   -17.056118   -48.985638   -87.799211    85.616494    435.48204    23.496944    22.152204   0.29657874    435.77862   -13.797454   -1205.2422 
    4700   -103184.45   -93664.096    231.22299    20721    226731.77   -37.154886   -54.130864    54.266334   -111.60013    435.43917     23.50118    22.156198   0.31801514    435.75718  -0.25656841   -1261.3855 
    4800   -103060.35   -93644.816    228.67703    20721    226654.09    -36.42467   -141.98749      90.5541   -57.840618    435.52001    23.494973    22.150346    0.2775973     435.7976   -3.0119816   -1281.0018 
    4900   -103032.87   -93650.643    227.86824    20721    226631.86    49.207398    187.33365   -177.67027    137.95882    435.30207    23.499701    22.154804   0.38656709    435.68863   -11.671162   -1272.5732 
    5000   -103042.76   -93628.396    228.64877    20721    226673.14    5.2874718    31.392947   -68.874226    53.343694     435.1626    23.505607    22.160371   0.45629787     435.6189   -29.730586   -1275.1921 
    5100   -103001.57   -93626.788    227.68733    20721    226674.35     65.47331    37.890206   -29.120242    187.64997    435.45871    23.497676    22.152895   0.30824672    435.76695   -6.9135109   -1303.9301 
    5200    -102913.7   -93538.147    227.70609    20721    226808.69    8.3230712    39.259624   -112.05773    97.767315    435.52508    23.502847     22.15777   0.27506049    435.80014   -41.805539   -1348.9165 
    5300   -102982.73   -93559.196    228.87129    20721    226593.36    10.965765    -95.70087    177.81689   -49.218726     435.3973    23.495135    22.150499   0.33894992    435.73625   -28.983418   -1351.0556 
    5400   -103107.86   -93519.901    232.86478    20721    226787.19   -83.275334     75.00199    -73.34851   -251.47948    435.37458    23.505795    22.160549   0.35030875    435.72489   -27.248481   -1382.5941 
    5500   -102914.99   -93526.955     228.0092    20721    226694.96     46.31569    172.43558    39.651136   -73.139646      435.663    23.493234    22.148707    0.2061014     435.8691    16.360643   -1427.6979 
    5600   -102981.49   -93508.534    230.07169    20721    226741.04   -38.505659   -25.607368   -372.90027    282.99067    435.67371    23.495333    22.150686   0.20074318    435.87446    1.7870419   -1427.4631 
    5700   -102983.86   -93523.869    229.75694    20721     226697.7    20.393772    111.97112    88.374486   -139.16429    435.36105    23.501522    22.156521   0.35707748    435.71812    14.947431   -1430.5994 
    5800   -102967.25   -93505.207    229.80655    20721    226842.53   -60.340579    73.731273    137.22452   -391.97753    435.48533    23.505673    22.160434   0.29493719    435.78026   -12.572176   -1414.1246 
    5900   -103029.09   -93508.013    231.24032    20721    226628.01    4.6550057   -254.46305    187.51098    80.917087    435.36342    23.497845    22.153054   0.35589084    435.71931   -12.673247   -1421.5542 
    6000   -102921.03   -93459.435    229.79573    20721    226821.06     17.75473   -183.50483    89.824901    146.94411    435.58899    23.501764    22.156748   0.24310377     435.8321   -5.3716531   -1474.1889 
    6100   -102883.23   -93471.992    228.57274    20721     226717.2    1.6961111     -26.6312    147.70623    -115.9867    435.44867    23.500168    22.155244   0.31326648    435.76193    6.7010676   -1475.8762 
    6200   -102961.26   -93464.078    230.65999    20721    226723.74   -40.939728   -204.96351   -30.269553    112.41388    435.30397    23.504412    22.159245   0.38561258    435.68959   -2.4318785   -1473.3601 
    6300   -102926.39   -93450.021    230.15464    20721    226634.32   -24.562521   -42.955023   -283.77612    253.04358    435.47005    23.495295     22.15065   0.30257579    435.77262    1.7567897   -1495.9337 
    6400   -102862.86   -93396.382     229.9145    20721    226807.37   0.57813514    -67.00506   -162.14132    230.88078    435.39965    23.506164    22.160897   0.33777458    435.73743   -10.798226   -1533.9926 
    6500   -102918.13   -93408.662    230.95843    20721    226598.61   -48.979036   -131.59449    85.363097   -100.70572    435.24592    23.499492    22.154607   0.41463998    435.66056  -0.52957377   -1535.6947 
    6600   -102903.28   -93378.017    231.34217    20721     226883.5    13.779494    177.55293    104.15023   -240.36468    435.46644    23.508306    22.162916   0.30438131    435.77082    9.9807106   -1573.1519 
    6700   -102915.53   -93401.266    231.07486    20721    226672.78   -28.173087    42.895072   -134.61708    7.2027457    435.37467    23.499862    22.154956    0.3502632    435.72494     16.13099   -1560.9053 
    6800   -102814.68   -93328.877    230.38373    20721    226784.03    17.876563   -38.927175   -14.669773    107.22664    435.30039    23.507634    22.162283   0.38740449     435.6878   -3.0139821   -1612.7991 
    6900   -102921.52   -93329.749    232.95731    20721    226732.97   -34.075642    153.18442   -315.88575    60.474407    435.52875    23.498825    22.153978   0.27322554    435.80197    0.9980015   -1618.5608 
    7000   -102921.44   -93338.499    232.74283    20721    226771.32   -48.115975   -70.932643    52.995448   -126.41073    435.46466    23.502541    22.157481   0.30527207    435.76993    5.1464155   -1612.8622 
    7100   -102908.16   -93296.169    233.44843    20721    226647.79   -76.857379   -82.226761    58.187405   -206.53278    435.53628    23.494207    22.149624   0.26945791    435.80574   -17.061932   -1634.1385 
    7200   -102910.91   -93313.406     233.0967    20721    226789.28    -77.02835   -263.19197   -341.59476    373.70168    435.38347    23.505663    22.160425    0.3458647    435.72934    4.8637548   -1637.7053 
    7300   -102887.85   -93309.892    232.62202    20721     226581.7    18.132119    39.452896   -307.65365    322.59711    435.48706    23.492109    22.147646   0.29406914    435.78113    18.271069   -1667.4929 
    7400    -102839.7    -93343.35    230.63999    20721     226615.7   -47.853416    56.193227   -58.337831   -141.41564    435.42286    23.495603     22.15094   0.32616752    435.74903     31.98843   -1642.8243 
    7500   -102814.47   -93297.914    231.13069    20721    226831.23    80.182878    179.33372    7.5777012     53.63721    435.67609    23.499941     22.15503   0.19955666    435.87564    21.798804   -1676.9888 
    7600   -102727.65   -93290.788    229.19512    20721    226665.76    72.229745    77.231514   -49.366304    188.82403    435.42229    23.498214    22.153402   0.32645599    435.74874    21.080571   -1690.7266 
    7700   -102781.58   -93289.522    230.53554    20721    226646.12    11.619392   -132.95569     78.79171    89.022153    435.54388    23.493915    22.149349   0.26565928    435.80954    22.960745    -1692.965 
    7800   -102830.21   -93298.934    231.48821    20721    226762.47     41.42135   -66.075189    184.37209    5.9671512    435.63023    23.497616    22.152838   0.22248414    435.85272     42.93484   -1702.5514 
    7900   -102871.43   -93231.011    234.13898    20721    226842.77   -53.643094     6.135637   -192.69342    25.628499    435.78464    23.497612    22.152834   0.14528016    435.92992    28.647191   -1749.7758 
    8000   -102718.64   -93223.233    230.61688    20721    226774.35   0.42134713   -107.72906    255.11572   -146.12262    435.43427    23.503518    22.158403   0.32046515    435.75473    26.163395   -1757.8162 
    8100      -102779   -93194.454    232.78186    20721    226759.53    3.9677944    224.78282   -29.348478   -183.53096     435.6848    23.495992    22.151307   0.19520106       435.88    38.790059    -1804.046 
    8200   -102788.34   -93172.542    233.54091    20721    226846.81   -29.515091   -43.144175   -203.00952    157.60842    435.59915    23.502824    22.157748   0.23802701    435.83717    22.852393   -1807.0123 
    8300   -102779.33   -93172.448     233.3244    20721    226812.57   -11.740705   -121.59532   -25.848339    112.22154    435.57404    23.501727    22.156714   0.25057942    435.82462    34.478528   -1819.6457 
    8400   -102787.42   -93161.482    233.78715    20721    226874.61   -26.651187   -20.742106   -58.646127  -0.56532924    435.56818    23.505099    22.159893   0.25351183    435.82169    39.011754   -1835.0073 
    8500   -102777.76   -93173.473    233.26127    20721    226783.15   -31.557785   -83.782506   -4.9763658   -5.9144826    435.56098    23.500556    22.155609   0.25711174    435.81809    55.154641   -1843.4237 
    8600   -102753.81   -93126.693    233.81587    20721    227021.77    77.917655   -41.526403    111.24753    164.03184    435.64398    23.510676     22.16515   0.21560968    435.85959    49.765874   -1883.3694 
    8700   -102817.99    -93137.45    235.11332    20721    226794.07    57.932431    180.18203   -59.113405    52.728667    435.52846    23.501998     22.15697   0.27337101    435.80183    34.007551   -1864.5832 
    8800   -102581.66   -93094.385    230.41957    20721    226893.28    102.27996    193.07696   -118.48494    232.24784    435.60366    23.505109    22.159902   0.23577159    435.83943    32.055066   -1904.9734 
    8900   -102721.74   -93120.287    233.19258    20721    226889.97    49.431352    7.1799993    69.023755    72.090302    435.73742     23.50133    22.156339   0.16889128    435.90631    45.252594   -1889.6877 
    9000   -102717.31   -93090.937    233.79782    20721    226933.95    11.051097   -57.677557    -10.50865     101.3395    435.53754       23.509     22.16357   0.26882786    435.80637    57.480783   -1931.8633 
    9100   -102717.29    -93096.76    233.65591    20721    226840.39   -29.178946    17.880277   -99.345038   -6.0720773    435.56107    23.503518    22.158403   0.25706325    435.81814     46.47251   -1914.6951 
    9200   -102702.44    -93102.32    233.16011    20721    227018.04     4.428846   -20.636413   -227.77774    261.70069    435.72216    23.508373    22.162979   0.17651921    435.89868     52.23284   -1911.7488 
    9300   -102827.14   -93085.383    236.60011    20721    226982.29   -27.733287   -66.628289    28.392596   -44.964167    435.71639    23.506678    22.161381   0.17940661    435.89579     53.07424   -1933.1484 
    9400    -102675.8   -93054.898    233.66485    20721    226875.82   -38.812196   -49.813351    2.1965535    -68.81979    435.59049     23.50456    22.159384   0.24235399    435.83285    48.110247   -1958.3499 
    9500   -102726.76   -93094.299    233.94566    20721    226936.57    40.897595   -85.717661   -50.952863    259.36331    435.66201    23.505777    22.160532   0.20659475    435.86861    55.166268   -1930.0944 
    9600   -102724.39    -93086.64    234.07402    20721    226820.26    -9.045542   -45.733689   -226.75276    245.34982    435.50232     23.50406    22.158914   0.28643973    435.78876    45.684793   -1928.8974 
    9700   -102730.47   -93046.982    235.18485    20721    226986.36    21.991856   -10.297662   -59.429287    135.70252    435.59481    23.510169    22.164672   0.24019343    435.83501    39.338666   -1961.7796 
    9800   -102734.19   -93105.967    233.84276    20721     226924.7   -86.936343   -30.396237   -158.79639   -71.616399    435.63168     23.50598    22.160724   0.22175843    435.85344    55.753637   -1916.9465 
    9900   -102680.34   -93056.709    233.73128    20721    226875.61      26.6206   -198.68831    97.143575    181.40653    435.71442    23.501206    22.156223    0.1803905    435.89481    29.352518   -1947.2541 
   10000   -102724.81    -93110.56    233.50338    20721    226786.03    37.451859    149.81638    13.478697   -50.939502    435.40792    23.504835    22.159644   0.33363997    435.74156    44.254758   -1914.7588 
   10100   -102704.52   -93042.603    234.66099    20721    226771.41   -13.331962   -224.32962   -47.766915    232.10065     435.4516    23.502898    22.157818   0.31179814     435.7634    18.609257   -1953.3703 
   10200   -102838.17    -93070.57    237.22791    20721    226618.16   -69.517509    92.073493    13.306485   -313.93251    435.38105    23.496859    22.152124   0.34707544    435.72812    51.442602    -1962.397 
   10300   -102569.46   -93035.204    231.56052    20721    226743.92    45.379082      160.608    31.461737   -55.932493    435.66431    23.495736    22.151065   0.20544278    435.86976     42.03676   -1988.6777 
   10400   -102653.09   -93022.437    233.90176    20721     226920.4   -10.629752    11.358159   -10.849438   -32.397976    435.74187    23.502786    22.157712   0.16666402    435.90854    33.600977   -1987.4038 
   10500   -102653.83   -93002.827    234.39592    20721    226852.54    4.5559154   -123.82996    109.98561    27.512094    435.52666    23.505076    22.159871   0.27426801    435.80093    29.390552    -2006.647 
   10600   -102668.62   -92981.357    235.27662    20721    227095.44     9.158575    50.205117   -158.55194    135.82255    435.64126    23.514563    22.168815   0.21696851    435.85823    28.532321   -2021.9611 
   10700   -102742.59   -92988.891    236.89021    20721     226894.9    39.780489   -5.0174213    238.60363   -114.24474    435.67771    23.503196    22.158098   0.19874506    435.87645    21.178582   -2017.6999 
   10800   -102580.46   -92970.939    233.38848    20721     226829.6  -0.70223399   -118.44449    66.693855    49.643935    435.73516    23.498264    22.153449    0.1700177    435.90518    21.125794      -2031.8 
   10900   -102607.97   -92962.969    234.25014    20721    226881.22    48.353159    136.23641    199.91305   -191.08998    435.66892    23.502724    22.157654   0.20314192    435.87206    4.9387432   -2026.3069 
   11000   -102560.48   -92977.091    232.75373    20721    226814.19    15.128735   -84.024321     133.5782   -4.1676698     435.5116    23.503496    22.158382   0.28180038     435.7934    18.913232   -2027.4059 
   11100   -102639.56   -92967.055     234.9182    20721    226856.74   -45.736114    21.472451    20.078543   -178.75934    435.58931    23.503603    22.158483   0.24294349    435.83226 -0.0086168265   -2015.0943 
   11200   -102670.51   -92946.876    236.15987    20721    227035.11    42.105722    226.66832   -46.858023   -53.493133    435.78792    23.507483     22.16214   0.14363883    435.93156   -9.0589124   -2026.9878 
   11300   -102516.87   -92904.546    233.45664    20721    226795.83     35.85773    100.48548   -273.87874    280.96645    435.64047    23.499068    22.154207   0.21736448    435.85784   -13.661067   -2071.2891 
   11400   -102581.05   -92891.145    235.34068    20721    226849.33    42.334967   -322.88976    165.43266      284.462    435.68318    23.500688    22.155734   0.19601148    435.87919   -9.6652765   -2090.1464 
   11500   -102668.03   -92867.449    238.02892    20721    226854.13   -20.249333   -200.29708    223.83667   -84.287593    435.59407     23.50334    22.158234   0.24056308    435.83464   -19.059333   -2103.5683 
   11600   -102514.18   -92845.899     234.8157    20721    226784.18    17.310225    40.352118   -78.173952     89.75251    435.51826    23.501761    22.156746   0.27847081    435.79673   -30.506258   -2117.1585 
   11700   -102540.56   -92885.597    234.49218    20721    226937.94    5.2758241   -151.83555    118.57851    49.084508    435.74091     23.50372    22.158593   0.16714741    435.90805    11.880312   -2114.7026 
   11800   -102599.49   -92846.337    236.87687    20721    226892.55    61.378449    52.606044   -80.838404    212.36771    435.46793    23.508734     22.16332    0.3036371    435.77156   -16.423371   -2134.4692 
   11900   -102571.54   -92854.649    235.99629    20721    226881.94    59.190205    53.244513   -116.51977    240.84587    435.57916    23.505183    22.159972   0.24801927    435.82718    8.7917642   -2149.9289 
   12000   -102604.27   -92839.559    237.15768    20721    226969.32   -10.088917   -63.608794   -87.744236    121.08628    435.48507    23.512248    22.166633   0.29506525    435.78013   -3.5022854   -2150.2487 
   12100   -102621.12   -92823.842    237.94864    20721    227064.81   -11.707125   -70.039658    142.32804   -107.40976    436.04235    23.502161    22.157123   0.01642318    436.05878    4.2761892   -2174.6802 
   12200   -102578.23    -92845.78     236.3741    20721    226870.93   -56.466025   -144.30681    79.186928   -104.27819    435.47561    23.507406    22.162068   0.29979329    435.77541    12.173882   -2163.4094 
   12300   -102574.08   -92821.696     236.8582    20721    226891.49   -8.3318143    106.66132   -175.25047     43.59371    435.47794    23.508409    22.163013   0.29862838    435.77657    9.2277158   -2187.2402 
   12400   -102520.95   -92824.052    235.51064    20721    226979.96    70.398275    108.44333   -263.47353    366.22502    435.81989    23.503766    22.158636   0.12765667    435.94754    10.765984   -2188.8226 
   12500   -102596.91   -92828.727    237.24197    20721    226949.56    60.956471    41.622479     112.4792    28.767737    435.59015    23.508389    22.162994   0.24252653    435.83267   -10.465001   -2164.6428 
   12600   -102522.71   -92772.162    236.81359    20721    227012.09    15.454121   -34.972601    131.09822   -49.763253    435.78306    23.506422     22.16114   0.14606971    435.92913   -11.056333   -2216.7009 
   12700   -102524.62   -92763.782    237.06355    20721    226815.72    37.479426    27.765182    143.39882    -58.72572    435.52358    23.503252    22.158151   0.27580831    435.79939    5.2300894   -2249.0797 
   12800   -102447.45   -92748.249    235.56659    20721    226908.02   -14.646006   -15.585246   -67.012542    38.659769    435.45333     23.50993    22.164447   0.31093706    435.76426    12.831384   -2266.8426 
   12900   -102503.47   -92764.094    236.54241    20721    226679.71   -46.939127    16.773344   -164.61952    7.0287927    435.47496    23.497515    22.152743   0.30012248    435.77508   -2.4359215   -2242.5417 
   13000   -102503.02   -92753.628     236.7856    20721    226754.88    53.810366   -4.9802088   -11.573028    177.98434    435.49428     23.50089    22.155925    0.2904596    435.78474  -0.92049759   -2258.6832 
   13100   -102615.17    -92748.53    239.63308    20721    226752.52   -41.296411   -149.23027   -29.003972    54.345005    435.54949    23.499278    22.154405   0.26285415    435.81235   0.56841795   -2262.0146 
   13200   -102581.93   -92762.536    238.48571    20721     226866.5    32.001634   -281.40389     41.46372    335.94508    435.58236    23.504296    22.159136   0.24641861    435.82878    1.3009686   -2250.7662 
   13300   -102471.62   -92771.244    235.59511    20721    226811.89    59.325332   -111.93049     -18.5943    308.50078    435.51272    23.503346     22.15824   0.28123879    435.79396    11.809583   -2257.0835 
   13400   -102568.16   -92753.231    238.37716    20721    226846.04    29.526595   -110.04542   -48.822491    247.44769    435.71377    23.499692    22.154795   0.18071289    435.89449    7.1406294   -2270.9334 
   13500   -102487.23   -92790.414     235.5087    20721    226680.61    29.753725    29.194172   -132.51096    192.57796    435.54526    23.495666    22.150999   0.26497027    435.81023    10.776334   -2241.0743 
   13600    -102501.8   -92773.573    236.27147    20721     226898.8    73.703612    79.457987    243.19828   -101.54543    435.55394    23.506736    22.161437   0.26062939    435.81457   -5.9101083   -2239.2662 
   13700   -102433.09   -92670.064    237.11669    20721    226809.15    6.5696442   -134.70705   -47.305379    201.72136    435.71191    23.497832    22.153041   0.18164275    435.89356    -20.73756   -2326.7574 
   13800   -102466.28   -92677.894    237.73269    20721    226972.87   -5.6578851    91.549234    25.758629   -134.28152    435.64324    23.508163    22.162782   0.21598022    435.85922   -27.980779   -2310.7161 
   13900   -102442.93   -92671.129    237.32993    20721    226815.08   -5.8361766   -32.015032    13.762581   0.74392141    435.61681    23.500703    22.155749   0.22919419    435.84601   -29.699464   -2320.2702 
   14000   -102426.43   -92695.617     236.3343    20721    227024.86    3.3087038    68.134156    -93.37087    35.162825    435.82639    23.505915    22.160662   0.12440433     435.9508   -19.481098   -2301.5415 
   14100   -102503.26   -92673.019    238.74924    20721    226922.73   -63.620262   -59.186316   -115.07058   -16.603893    435.68294    23.504496    22.159324   0.19613051    435.87907   -17.360368    -2328.713 
   14200   -102399.93   -92667.676    236.36922    20721    227013.67    36.148068     -36.8249      123.161    22.108105    435.78199    23.506533    22.161245   0.14660695    435.92859   -20.139729   -2332.8966 
   14300   -102377.19   -92651.968    236.19863    20721       226936    74.011055    78.522799    79.844508    63.665859    435.56185     23.50845    22.163052   0.25667616    435.81852   -28.819675   -2343.1122 
   14400    -102354.5   -92617.621    236.48162    20721    227027.48    70.686249    102.02319    90.214294    19.821262    435.68166    23.509955     22.16447   0.19677115    435.87843   -51.279863   -2354.8485 
   14500   -102414.11   -92578.073     238.8899    20721    226880.62    -20.92861    11.900108   -145.72938    71.043445    435.64728    23.503277    22.158175   0.21395991    435.86124   -39.156868    -2407.275 
   14600   -102388.18   -92557.761    238.75359    20721    227008.85    3.9442469    9.1602522   -217.10084    219.77332    435.71566    23.508073    22.162696   0.17977081    435.89543   -35.125429   -2430.8051 
   14700   -102486.31   -92584.155    240.49567    20721    227057.16    17.719834   -43.420568   -116.87668    213.45674    435.91735    23.505134    22.159926  0.078923373    435.99628   -30.462675   -2407.6251 
   14800   -102380.29   -92590.835    237.75851    20721    226931.86    23.437632   -151.46312   -57.187773    278.96378    435.79718    23.501887    22.156865   0.13900974    435.93619   -33.510682   -2403.0847 
   14900   -102374.55   -92593.532    237.55355    20721    227239.34   -34.290281   -108.79291    1.6667526    4.2553186    435.89391    23.515195    22.169411  0.090647407    435.98455   -19.406679   -2401.5255 
   15000   -102397.38   -92532.154    239.59876    20721    227124.41    70.564708   -36.324968   -17.988962    266.00805     435.7652    23.512719    22.167076   0.15500068     435.9202    -23.92072   -2469.4892 
   15100   -102390.46   -92587.928    238.07626    20721    227175.88    11.449125    45.204724    19.487935   -30.345283    435.86059    23.512809    22.167162   0.10730427     435.9679   -21.121502   -2412.9692 
   15200   -102273.73   -92576.218    235.52557    20721    227111.43    25.191796    46.852602   -7.8464907    36.569278    435.59357    23.516679     22.17081   0.24081669    435.83438   -25.290166   -2422.2194 
   15300   -102416.46   -92572.572    239.08061    20721    227129.09    69.373001     91.60502    98.331377    18.182605    435.68714    23.515067     22.16929   0.19402966    435.88117   -31.876298   -2425.0991 
   15400   -102384.72   -92581.045    238.10405    20721    226929.88    95.378812    200.40334   -38.012168    123.74527    435.63901    23.506051    22.160791   0.21809486    435.85711   -15.012469   -2441.8215 
   15500   -102384.22   -92530.485    239.31967    20721    227140.36   -14.117338   -165.30709    116.66184    6.2932359    435.78453    23.513023    22.167363   0.14533373    435.92987   -33.423009   -2460.4761 
   15600    -102483.5   -92511.897    242.18254    20721    227105.68   -19.859458    64.663371   -79.990231   -44.251514    435.57104    23.516989    22.171102   0.25207924    435.82312   -35.947948   -2482.7183 
   15700   -102367.16   -92558.631    238.22179    20721    226886.25   -11.417418   -3.6664675   -223.41949    192.83371    435.54156     23.50642    22.161139   0.26681786    435.80838   -20.409807   -2457.2501 
   15800   -102408.28   -92529.013    239.93977    20721     226962.6    42.031667    233.01341   -267.19745    160.27904    435.57533    23.509464    22.164008   0.24993469    435.82527   -25.409733   -2484.1802 
   15900   -102281.91    -92478.28    238.10294    20721    227046.97    67.069553   -9.5940972   -16.649317    227.45207    435.62748    23.512426      22.1668   0.22385967    435.85134   -24.201765   -2533.9832 
   16000   -102371.87    -92482.05    240.19604    20721    226976.73   -22.819831    4.9698695    26.260752   -99.690114    435.62396    23.508883    22.163461   0.22562246    435.84958   -39.873424   -2513.4569 
   16100   -102432.37    -92537.94     240.3082    20721    227093.67   -13.220958    -112.9275    2.6005023    70.664122    435.71492    23.512484    22.166855   0.18014043    435.89506   -30.985063   -2464.9222 
   16200   -102446.19   -92470.862    242.27287    20721    227059.51   -139.14155   -290.63262   -280.95819    154.16615     435.7897    23.508698    22.163286   0.14275202    435.93245   -45.127313   -2514.4784 
   16300   -102378.35   -92484.928    240.28376    20721     227066.7    14.694638    30.096811   -8.1966907    22.183792    435.47994     23.51743    22.171518   0.29762817    435.77757   -40.758741   -2512.7807 
   16400   -102391.98   -92485.838     240.5927    20721    227065.36   -8.2442087    14.460049   -94.184062    54.991388    435.70513    23.511283    22.165723   0.18503535    435.89016   -38.549078   -2514.0904 
   16500   -102386.81   -92435.635    241.68631    20721    226993.36   -46.176265    35.928239   -38.824913   -135.63212    435.70477    23.507564    22.162217   0.18521286    435.88999   -73.652204   -2529.2265 
   16600   -102379.52   -92408.087    242.17834    20721    227039.48   -67.276644   -89.870403    51.717934   -163.67746    435.78408    23.507813    22.162451   0.14555842    435.92964    -74.39822   -2555.3405 
   16700   -102302.45     -92395.1    240.62193    20721    227123.36    88.918837    26.983695    37.591304    202.18151     435.6297    23.516321    22.170472   0.22275218    435.85245    -51.33151   -2597.4078 
   16800   -102254.97   -92418.838    238.89216    20721    227081.45   -21.729636    69.845115   -210.83165    75.797625    435.64615    23.513707    22.168008   0.21452354    435.86068   -66.532499   -2552.7527 
   16900   -102326.68   -92405.653     240.9541    20721    227123.96   -6.7260327    24.870038    20.364986   -65.413122    435.95826    23.507489    22.162146  0.058471051    436.01673   -53.405563   -2582.8829 
   17000    -102409.8   -92426.422    242.46835    20721    227038.96    1.0625265   -51.741162    163.19599   -108.26724    435.52689    23.514726    22.168969   0.27415729    435.80104   -50.753638   -2566.4067 
   17100   -102356.74   -92416.829    241.41275    20721    227086.56   -44.336016   -140.59681    69.725442   -62.136684    435.58507     23.51562    22.169812   0.24506577    435.83013   -25.627103   -2599.8713 
   17200   -102323.39   -92409.051    240.79176    20721    227011.83    51.449617    254.56863   -44.231062   -55.988718    435.57729     23.51196    22.166361   0.24895329    435.82625   -31.315935   -2611.2226 
   17300   -102298.43   -92393.961    240.55199    20721     226904.5   -15.629336    83.413499    176.35429    -306.6558    435.71187    23.502771    22.157698     0.181663    435.89354   -31.062387   -2626.9279 
   17400   -102265.24   -92419.028    239.13706    20721    226814.03    -14.35179    108.22642    119.72831    -271.0101    435.49798    23.503855     22.15872   0.28860967    435.78659   -36.380824   -2597.0366 
   17500   -102316.06   -92383.207    241.24122    20721    226889.81    33.218269    31.103884    127.43179   -58.880871    435.42428    23.509771    22.164297   0.32546133    435.74974   -35.124658   -2637.3063 
   17600    -102281.8   -92357.978    241.02196    20721    227062.45    4.2302071    42.770613   -89.165541    59.085549    435.73479    23.510332    22.164826   0.17020388      435.905   -37.649983   -2654.7014 
   17700   -102337.16   -92331.261    243.01545    20721    227124.84   -33.251463   -77.312143     5.485413   -27.927658    435.55854    23.518318    22.172356   0.25833148    435.81687   -60.208628   -2658.3431 
   17800   -102253.89    -92317.47    241.32807    20721    226992.94    38.559952   -19.680592   -225.03726     360.3977    435.75032    23.506314    22.161038   0.16244159    435.91276   -79.818241     -2659.07 
   17900   -102315.78   -92330.106     242.5243    20721    227021.08   -34.598368    3.1343424   -47.562505   -59.366942    435.58903    23.512123    22.166515   0.24308439    435.83212   -56.500333   -2666.4422 
   18000   -102306.27   -92323.067    242.46417    20721    227079.64    20.090864     49.30966    107.71425   -96.751315    435.73921    23.511102    22.165553   0.16799595     435.9072   -40.383697   -2690.9088 
   18100    -102304.4   -92325.357    242.36314    20721    227017.39    70.109683    11.229155    216.05199   -16.952098    435.60307    23.511553    22.165977   0.23606731    435.83913   -37.237398   -2697.8271 
   18200   -102157.47   -92269.152    240.15971    20721     227105.5   -4.4418902    56.565113   -171.64486    101.75408    435.56469    23.517151    22.171255   0.25525459    435.81995   -46.768403   -2738.3114 
   18300   -102265.11   -92306.669    241.86275    20721    227212.34    59.084487     46.97276    10.276001     120.0047    435.60996     23.52146    22.175317   0.23262003    435.84258   -46.404032   -2703.7126 
   18400   -102259.57   -92280.168    242.37176    20721    227041.34    67.675573    86.508891    151.18491   -34.667086    435.60618    23.512709    22.167067   0.23450752    435.84069   -56.840534   -2725.7351 
   18500    -102189.4   -92232.532    241.82455    20721    227098.45   -58.250905   -29.946701   -141.38525   -3.4207649    435.61023    23.515557    22.169752   0.23248542    435.84271   -62.172019   -2759.2745 
   18600    -102268.2   -92229.217    243.81889    20721    227285.58   -5.9932242   -87.611983    138.66704   -69.034731    435.84709     23.51885    22.172857   0.11405438    435.96115   -60.663723   -2763.2784 
   18700   -102267.37   -92235.363    243.64948    20721    227052.45    2.7207499    45.210193   -20.978312   -16.069631    435.55913    23.514554    22.168807   0.25803574    435.81716   -54.234382   -2772.5223 
   18800   -102297.41   -92212.214     244.9412    20721    227092.44   -35.839137    -111.7517   -34.770496    39.004788    435.62283    23.514905    22.169138   0.22618283    435.84902   -53.452306   -2795.5963 
   18900   -102118.68   -92204.222    240.79446    20721    227042.19    19.055847    213.03739   -177.69283    21.822989    435.72183    23.509632    22.164167   0.17668379    435.89852   -46.829595   -2812.9041 
   19000   -102242.07    -92245.08    242.79914    20721    227089.39   -6.5644639   -100.68668   -85.599203    166.59249    435.75886    23.511077    22.165529   0.15816924    435.91703   -10.183629   -2809.2451 
   19100   -102196.02   -92198.418    242.81393    20721    227128.91   -52.468048    -74.98482   -414.23874    331.81942    435.79348    23.512189    22.166577   0.14085939    435.93434   -51.388257   -2810.9373 
   19200   -102155.55   -92175.527    242.38704    20721     227304.6    96.415856    247.96897    -190.8237    232.10229    435.92447    23.517746    22.171816  0.075363235    435.99984   -37.309011   -2851.9782 
   19300   -102283.38   -92205.388    244.76629    20721    227196.49    9.0944724    19.718238      15.7688   -8.2036213    436.08467    23.507834    22.162471 -0.0047346235    436.07993   -32.315965   -2828.5043 
   19400    -102152.1   -92175.813    242.29624    20721    227047.67    60.332004    46.614933    1.9991769     132.3819    435.80556    23.507658    22.162305   0.13481793    435.94038   -47.392321   -2849.0573 
   19500   -102221.19   -92156.006    244.45529    20721    227159.34   -71.933385    34.221562   -120.90028   -129.12144    435.83828    23.512555    22.166922   0.11845842    435.95674   -38.918058   -2868.2155 
   19600   -102265.02   -92165.206    245.29642    20721    227295.51   -7.5951153    198.42759   -98.415676   -122.79727    436.18844    23.510159    22.164663 -0.056621804    436.13182   -30.274211   -2869.1358 
   19700   -102180.11   -92160.678    243.34404    20721    227201.41      -1.6573   -108.44733    196.70964   -93.234201    436.01802    23.509885    22.164405  0.028591742    436.04661   -48.509506   -2859.2111 
   19800   -102124.32   -92133.766    242.64282    20721    227412.83    85.395174    258.51675   -3.5829726    1.2517421    435.98156    23.521804    22.175642  0.046821444    436.02838   -34.397524   -2899.3606 
   19900   -102131.22   -92157.576    242.23213    20721    227245.89    73.837667    195.19695   -42.820131    69.136184    436.05398    23.511217    22.165661  0.010609904    436.06459   -28.172882   -2886.0204 
   20000   -102095.92   -92128.824    242.07305    20721    227282.17    57.763784    55.408763    93.110573    24.772017    436.16409    23.510126    22.164632 -0.044443914    436.11964   -24.908242    -2917.069 
   20100   -102115.22   -92114.389    242.89242    20721    227239.49    49.027773     35.62412    27.952164    83.507035    435.90743    23.514837    22.169074  0.083887023    435.99131   -28.487769   -2930.2894 
   20200   -102098.42   -92167.228    241.20096    20721     227238.5       74.727    73.920634    82.266689    67.993676    436.04339     23.51112    22.165569  0.015903137     436.0593   -40.549533   -2867.3848 
   20300   -102146.58   -92153.018     242.7157    20721    227193.83    13.871006   -48.837382      16.4785    73.971902    435.90268    23.512603    22.166967  0.086259355    435.98894   -39.573034   -2882.9707 
   20400   -102210.54   -92149.909    244.34475    20721    227315.56    43.271129    86.490954    60.518593   -17.196162    436.05477      23.5148    22.169038  0.010217487    436.06498   -51.381654   -2873.1862 
   20500   -102117.12   -92167.813    241.64083    20721    227046.59    82.857641   -44.987798     31.30647    262.25425    435.85175    23.506356    22.161078   0.11172668    435.96347   -43.392013   -2873.3202 
   20600   -102163.06   -92151.139    243.16165    20721     227164.5    12.051363    88.541169   -8.0615514   -44.325527    435.68587    23.516934    22.171051   0.19466485    435.88054   -33.331207   -2894.7997 
   20700   -102213.78   -92118.413    245.18823    20721    227090.78    -30.19712    100.00522    5.3459703   -195.94255    435.81547    23.509622    22.164157   0.12986357    435.94534   -38.811796    -2925.837 
   20800    -102166.4   -92163.081    242.95286    20721    226993.75   -24.069177   -69.169924   -217.16562    214.12801    435.56977    23.511228    22.165671   0.25271597    435.82248    -20.09622   -2901.9426 
   20900   -102131.99   -92138.979    242.70238    20721     227213.5   -22.745031   -1.2853407    53.805383   -120.75514    435.81192    23.516069    22.170235   0.13164087    435.94356    9.8988752   -2952.3142 
   21000    -102110.5   -92112.353    242.82702    20721    226836.53    3.8612725   -92.940833   -53.844314    158.36896     435.6151    23.501861     22.15684     0.230052    435.84515   -2.7320716   -2978.3943 
   21100   -102112.95   -92104.834     243.0693    20721     227013.8   -21.285017    61.699892   -220.80676    95.251816    435.53735    23.513141    22.167474   0.26892665    435.80627   -17.368479   -2965.3347 
   21200   -102145.65   -92130.988     243.2282    20721    226869.51    11.251596    -109.4651   -81.751071    224.97096    435.40094    23.509349    22.163899   0.33713056    435.73807   -12.240628   -2953.1966 
   21300   -102190.68   -92110.569    244.81779    20721    227055.08    5.5018228    190.14939    -185.9465    12.302578    435.35844    23.520109    22.174044   0.35837903    435.71682   -19.509444   -2960.3437 
   21400   -102113.22   -92096.003    243.29017    20721    226916.77    71.431346    245.90492     191.1337   -222.74459    435.54237     23.50798    22.162609   0.26641432    435.80879   -11.806638   -2991.3495 
   21500   -102103.02   -92097.955    242.99513    20721    226889.13    -60.13425    44.621153    8.9427254   -233.96663    435.39749    23.510458    22.164945   0.33885432    435.73635   -3.8330771   -2992.5828 
   21600   -102075.23   -92105.016    242.14879    20721    226805.93   -20.011478     20.11048    -304.8576    224.71269    435.33957    23.507711    22.162355   0.36781718    435.70738   -1.4776658   -2993.0749 
   21700   -102254.77    -92088.37    246.91345    20721    227077.53   -83.919319   -137.03554   -37.009163   -77.713259     435.4911     23.51769    22.171763   0.29204811    435.78315  -0.61834989   -3001.1201 
   21800   -102113.33   -92024.802     245.0223    20721    226879.25   -80.091366    46.688294    -225.6713   -61.291092    435.39703    23.509959    22.164475   0.33908615    435.73611   -10.283744   -3062.2915 
   21900    -102083.4    -91996.58    244.98076    20721    227049.78  -0.95282404    -2.140328   -174.39767    173.67952    435.59904    23.513339    22.167661   0.23808087    435.83712   -20.651246   -3079.9019 
   22000   -102076.09   -92001.849    244.67517    20721    226952.45   -47.934528   -96.974481   -19.234396   -27.594706    435.32349    23.515737    22.169922   0.37585424    435.69935   -23.212374   -3073.9307 
   22100   -101920.43   -91982.935    241.35403    20721    226771.91    82.870792     150.5124     161.4232   -63.323217    435.28826    23.507334    22.161999   0.39346975    435.68173   -27.007157   -3098.2775 
   22200    -102143.3   -91923.814    248.20273    20721    226925.54   -96.095552   -8.2436101   -312.86501     32.82196    435.31844     23.51448    22.168737   0.37838193    435.69682   -26.265364   -3149.2006 
   22300   -101919.36   -91921.936    242.80961    20721    226951.04    63.919538    176.02391   -78.539956    94.274658    435.45484    23.512118     22.16651   0.31018013    435.76502   -30.324764    -3152.523 
   22400   -101982.47   -91951.343    243.62819    20721    226981.38    -13.51161    98.525557   -39.236459    -99.82393    435.56594     23.51069    22.165164   0.25463235    435.82057   -18.794799   -3131.3187 
   22500   -102015.37   -91924.835    245.07109    20721    227033.38    14.327245   -90.600985    35.536974    98.045747    435.63799    23.511439    22.165869   0.21860701    435.85659   -17.348399   -3160.1415 
   22600   -102026.13   -91932.319    245.15049    20721    226878.15   -24.610907   -69.785787    148.01046    -152.0574    435.67478    23.502407    22.157355   0.20020941    435.87499   0.86693619   -3175.3883 
   22700   -102011.81   -91935.865    244.71651    20721    227136.18    40.049231   -56.149442    130.92207    45.375069    435.64545     23.51656    22.170698   0.21487748    435.86032    13.309422   -3180.4185 
   22800   -101927.15   -91965.147    241.94933    20721    227037.23   -5.1628434   -42.781612     102.2079   -74.914816     435.4723     23.51611    22.170274   0.30145249    435.77375     17.23277   -3155.7374 
   22900   -102039.03   -91955.332    244.90496    20721    227120.77    -26.96093    86.723702   -189.02103     21.41454    435.50709    23.519497    22.173467   0.28405747    435.79114    26.755506   -3173.3865 
   23000   -102014.17   -91931.205    244.88712    20721    227106.55    19.550163    122.21295    71.750628   -135.31309    435.56382    23.517229    22.171328   0.25569225    435.81951    12.134349   -3187.6354 
   23100   -101991.32   -91926.121    244.45553    20721    227084.24    -22.12918   -61.626889   -220.46798    215.70733    435.45299    23.519066     22.17306   0.31110424     435.7641    6.8709131   -3183.3523 
   23200   -101947.16   -91900.236    244.01185    20721    227034.86    18.385842    64.634275   -147.98329    138.50654    435.46108     23.51629    22.170444   0.30706062    435.76814     7.474788   -3215.5293 
   23300   -102142.52   -91927.467    248.09523    20721    227020.85   -116.27738    168.54237    71.025877   -588.40039    435.68343    23.509563    22.164102   0.19588371    435.87932    18.559526   -3195.2176 
   23400   -102004.01   -91933.525    244.58402    20721    226969.15    22.907817    127.48968    51.053396   -109.81962      435.662    23.507465    22.162123   0.20659944     435.8686    14.480426   -3193.0723 
   23500   -101939.31   -91886.987    244.14292    20721    227047.52    53.698958    51.801655    226.67538   -117.38016    435.48864    23.516202     22.17036   0.29327902    435.78192   -12.251015   -3213.8062 
   23600   -102013.13   -91894.684    245.74886    20721    226888.35    56.751053   -19.969262   -32.675675     222.8981    435.35002      23.5117    22.166116   0.36258811    435.71261    3.2135112   -3227.3494 
   23700   -101932.14   -91893.709    243.80559    20721    226949.63    4.7442629    31.638053   -155.39655    137.99129    435.34913    23.514899    22.169132    0.3630352    435.71216   -7.7007016   -3213.7761 
   23800   -102044.69   -91877.031    246.94406    20721    227021.08   -28.545146   -95.575937     327.2297    -317.2892    435.43589    23.516257    22.170412   0.31965542    435.75554   -11.837332   -3223.7393 
   23900   -101932.31   -91886.205    243.99188    20721     226990.4   -25.160954    160.08117       -210.6   -24.964028    435.40361    23.515539    22.169736   0.33579296    435.73941   -1.9283281   -3225.5752 
   24000   -101943.27   -91921.596    243.39859    20721    226796.37    61.638615    85.010504    230.47827   -130.57293    435.32147    23.507705    22.162349   0.37686731    435.69833   -11.839809   -3190.1993 
   24100   -101864.95   -91855.783    243.09473    20721    226986.44    49.079444    84.117385   -206.39172    269.51267    435.58987    23.510306    22.164802   0.24266651    435.83253   -15.430697   -3248.0899 
   24200   -101885.39   -91822.486    244.39984    20721     227044.8    51.081309   -214.93062   -37.428742    405.60329    435.38362    23.518897    22.172901   0.34578954    435.72941   -14.907316    -3280.573 
   24300   -101984.68   -91831.644    246.58906    20721    226976.73    80.421345     258.2695    25.959666   -42.965133    435.51466    23.511833    22.166242   0.28026903    435.79493   -23.920138   -3267.3258 
   24400   -101943.64   -91810.926    246.09529    20721    226977.32   -25.195733    66.972973   -237.18954    94.629363    435.29223     23.51787    22.171933   0.39148598    435.68371   -3.9524242    -3304.642 
   24500   -101914.42   -91750.969    246.84189    20721    227040.83   -50.587882   -132.29861    109.65377   -129.11881    435.26488    23.521899    22.175732   0.40516188    435.67004  -0.99249642   -3365.1637 
   24600    -101866.7   -91766.774    245.29914    20721    226972.54   -132.92112   -83.371233   -75.061852   -240.33028    435.34358    23.516235    22.170392   0.36581131    435.70939   -8.1496776   -3341.0919 
   24700   -101954.43   -91802.892    246.55267    20721    227143.34   -58.540049   -260.82779    -14.79517    100.00281    435.45052    23.522193    22.176009   0.31234019    435.76286    6.4563518   -3320.3499 
   24800   -101903.62   -91789.857    245.63516    20721    227088.77   -29.488731   -116.02686     -54.0729    81.633565    435.34308     23.52227    22.176081   0.36605851    435.70914    18.742171    -3349.792 
   24900   -101912.72   -91749.259    246.84218    20721    226924.66    -19.66316   -112.73743   -29.971853    83.719808    435.35201    23.513528    22.167839   0.36159474    435.71361    -3.980067   -3373.7067 
   25000   -101790.53   -91755.376    243.72592    20721    227057.97   -66.648336   -75.619495   -317.52237    193.19685    435.57047    23.514534    22.168788   0.25236427    435.82284   -10.294928   -3356.0337 
   25100   -101907.25   -91752.844    246.62211    20721    227161.59   -49.853612    54.707621    -238.4253    34.156847    435.32605    23.526501     22.18007   0.37457334    435.70063    13.148741   -3381.5165 
   25200   -101839.11   -91737.421    245.34185    20721    226929.68    37.238658     82.84866    206.82987   -177.96255     435.5179    23.509309    22.163862   0.27865147    435.79655    30.944826   -3425.4228 
   25300   -101821.79   -91702.983    245.75769    20721    227017.77    58.511226    68.781425    5.6522543        101.1    435.45826    23.515482    22.169681   0.30847171    435.76673    15.812846   -3443.2038 
   25400   -101817.41   -91713.499     245.3959    20721    227074.12   -64.403842   -38.449516    20.196217   -174.95823    435.52057    23.516717    22.170846    0.2773168    435.79788    37.045344   -3447.0382 
   25500   -101830.47   -91761.421    244.54911    20721    227272.97    63.477109    98.429923   -138.80333    230.80473    435.65758    23.523312    22.177064   0.20881158    435.86639    36.419294   -3400.5499 
   25600   -101871.96    -91760.89    245.56961    20721    227013.45    74.393304    4.2494351    209.65486    9.2756149    435.40842    23.516604    22.170739   0.33339085    435.74181    55.713764   -3430.9066 
   25700   -101715.18   -91689.091    243.50573    20721    227221.89   -1.1276146    152.05806    82.118412   -237.55931    435.45416    23.526162     22.17975   0.31051973    435.76468    50.590171   -3486.1478 
   25800    -101914.2   -91702.536    248.01291    20721    227128.03   -70.064455    -81.93466   -275.94544    147.68674    435.63464    23.516429    22.170574   0.22027822    435.85492    53.367456   -3479.6179 
   25900   -101854.62   -91664.234    247.49608    20721    227097.11   -54.978873   -143.81722   -333.67419    312.55479    435.43546    23.520206    22.174135   0.31987173    435.75533    34.826893    -3503.031 
   26000   -101759.01   -91702.192    244.25212    20721    227182.53    61.854957   -21.740554    179.10075    28.204673    435.66673    23.518384    22.172418   0.20423446    435.87097    45.868491   -3478.7236 
   26100   -101890.48   -91676.929    248.05879    20721    227090.31     -12.2923   -51.890966    37.048171   -22.034107    435.48248    23.518584    22.172606   0.29635828    435.77884     63.23277   -3521.9904 
   26200   -101741.29   -91662.209    244.79285    20721    227054.05   -48.401669    0.7169267      167.365   -313.28693    435.84758    23.506855    22.161548   0.11381249    435.96139    52.896334   -3526.0651 
   26300   -101744.83   -91664.985    244.81135    20721    227001.23    27.350353   -14.775925   -234.77937    331.60636    435.61447    23.510408    22.164898   0.23036257    435.84484     38.11367   -3516.0321 
   26400   -101821.55   -91628.262    247.56644    20721    227146.89    19.849713   -46.634525    87.953258    18.230407     435.7374    23.514632     22.16888   0.16890111     435.9063    10.683698   -3520.2209 
   26500   -101781.84   -91659.694    245.83872    20721    227106.12   -32.589198    78.415088   -382.40157    206.21889     435.5158    23.518503     22.17253   0.27970025     435.7955    32.223489   -3510.7107 
   26600   -101753.26   -91642.844    245.55392    20721    227140.72    92.112778    349.21874   -349.21119    276.33078    435.54483    23.519511     22.17348   0.26518639    435.81001    44.396752   -3545.5975 
   26700   -101828.31   -91691.357    246.19833    20721    226779.36   -36.732207   -98.104044    198.49962    -210.5922    435.34731    23.506125     22.16086   0.36394732    435.71125    45.438247    -3504.992 
   26800   -101792.14   -91648.246    246.36694    20721    227143.33   -10.658669    16.742243   -80.593962    31.875711    435.67314    23.516182    22.170342   0.20102916    435.87417    52.429952   -3545.8799 
   26900   -101878.98    -91652.04    248.38386    20721    226969.24   -20.275886    53.751594     117.7997   -232.37895    435.40156    23.514499    22.168755    0.3368182    435.73838    50.910127   -3548.0642 
   27000   -101836.26    -91575.23    249.21173    20721    227052.11   -62.913901    72.082648   -231.93387   -28.890481    435.44288    23.517675    22.171749   0.31615847    435.75904     55.43454   -3626.0579 
   27100   -101786.09   -91554.663    248.49274    20721    227000.27   -90.439811   -72.138649   -164.35884   -34.821942    435.51086    23.513155    22.167488   0.28217151    435.79303    56.149304   -3646.6681 
   27200   -101694.16    -91541.85    246.57122    20721    227037.79   -7.2774707    146.53454   -125.78044   -42.586509    435.32674     23.52007    22.174007   0.37423191    435.70097    30.772076   -3638.4722 
   27300   -101676.45   -91538.039     246.2337    20721    227076.83    18.753561    51.860458     69.12301   -64.722785    435.64934    23.513382    22.167701   0.21292936    435.86227    45.755864   -3657.7946 
   27400   -101627.13   -91561.768     244.4595    20721    227000.99    35.215022    204.33848   -77.601799   -21.091618    435.47146    23.514256    22.168526   0.30186934    435.77333    55.339137   -3648.5128 
   27500   -101646.56   -91532.543    245.64124    20721     226939.3   -43.434544    13.985208   -121.66948   -22.619364    435.36693    23.513883    22.168174   0.35413252    435.72107    38.803654   -3658.6803 
   27600   -101660.88   -91529.745    246.05696    20721    226826.37   -26.245103    -27.32047   -270.22272    218.80788    435.24427    23.511344     22.16578   0.41546259    435.65974    45.793317   -3676.5856 
   27700   -101757.62   -91508.816    248.91491    20721    227030.31   -63.136961   -59.463253     -173.508    43.560367    435.58707    23.512654    22.167015   0.24406541    435.83113    27.586776   -3672.9234 
   27800   -101755.08   -91565.197    247.48387    20721    226752.27   -46.667081    -71.39641    66.551818   -135.15665    435.35122    23.504616    22.159437   0.36198847    435.71321    52.253074   -3650.5394 
   27900   -101651.97    -91547.77    245.40281    20721    226966.24   -24.347383   -105.31673    92.457333   -60.182752    435.27279    23.517822    22.171887   0.40120644    435.67399    54.597104   -3664.9887 
   28000    -101651.6   -91514.079    246.21212    20721    226799.47   -22.362698   -88.786239    4.8035722    16.894572    435.29073    23.508695    22.163283   0.39223477    435.68297    51.598683   -3702.8592 
   28100   -101640.28   -91478.628    246.79826    20721    226914.09    51.378686    156.99308   -142.25466    139.39764    435.11712    23.519325    22.173305   0.47903852    435.59616     42.40244   -3732.1491 
   28200    -101661.4   -91485.323    247.14851    20721    226875.08   -42.852675   -167.56265    8.2575366    30.747087    435.27502    23.513038    22.167377   0.40009155    435.67511    26.059083   -3704.8939 
   28300   -101696.33   -91516.452     247.2408    20721    226821.71    40.579006    80.277039    28.674387    12.785593    435.18986    23.512572    22.166938    0.4426716    435.63253     32.72982     -3686.16 
   28400   -101642.26   -91447.455    247.60339    20721    226779.13   -129.42115   -184.22309    27.013265   -231.05362    435.08088     23.51331    22.167634   0.49716058    435.57804    27.542044   -3744.3829 
   28500   -101566.37   -91405.413    246.78132    20721    226833.03    100.78184    40.848367    254.70847    6.7886752    435.03019    23.517473    22.171559   0.52250417     435.5527   -4.3881147   -3766.5938 
   28600   -101585.33   -91399.049    247.39635    20721    226798.96   -28.196592    58.504091    -5.391514   -137.70235    434.91104    23.518928    22.172931   0.58208166    435.49312    25.856633   -3798.5916 
   28700   -101604.28   -91407.353    247.65494    20721    226871.83    76.961073   -177.31489    27.079011     381.1191    435.03907    23.519244    22.173229   0.51806252    435.55714    18.141746   -3786.1759 
   28800    -101700.6   -91408.041    249.97763    20721    226948.83    10.097896   -100.20493      114.152     16.34662     435.1061    23.521424    22.175283     0.484548    435.59065    40.393798   -3804.6372 
   28900   -101579.88   -91385.147    247.60158    20721    226818.19    1.7076837    105.26517   -131.95086    31.808747    434.80619    23.522761    22.176544   0.63450565    435.44069    15.049147   -3804.7374 
   29000   -101628.36   -91378.555    248.93915    20721    227003.84   -23.553079    129.20726   -215.46127    15.594776    434.96986    23.527958    22.181444   0.55267156    435.52253    30.987814   -3822.7634 
   29100   -101523.38    -91311.83    248.01004    20721    226803.38   -19.397398   -119.92466    209.79308   -148.06061     434.9092    23.519207    22.173194   0.58299787     435.4922    20.812508   -3886.5675 
   29200   -101512.74    -91340.68    247.05093    20721    226760.56   -90.933975   -275.74562    106.70503   -103.76134    434.84888    23.518618    22.172638   0.61316112    435.46204    22.115153   -3855.8212 
   29300    -101477.7   -91306.078    247.04035    20721    226773.89    42.205372      92.1454    -207.2184    241.68912    434.92777    23.517176    22.171279   0.57371602    435.50148   -7.8932154   -3868.3372 
   29400   -101580.73   -91325.575    249.06926    20721    226677.95  -0.63364445    20.574829   -159.24547    136.76971    434.95548    23.511452    22.165882   0.55986175    435.51534    12.202459   -3872.6027 
   29500   -101561.05    -91278.21    249.74155    20721    226805.09   -47.064259   -180.80052   -116.84402    156.45176    434.82869    23.521473     22.17533   0.62325427    435.45195   -19.097343     -3883.95 
   29600   -101492.04   -91279.018    248.04587    20721    226524.67   -18.519425    88.127348   -34.989026    -108.6966    434.84107    23.506593    22.161301   0.61706499    435.45814   -4.7489115   -3909.0231 
   29700   -101532.22   -91266.842    249.31737    20721    226706.19    -17.28007   -55.810649    -68.86819    72.838628    434.97323    23.512437    22.166811   0.55098688    435.52421   -13.703252   -3906.1558 
   29800   -101440.77   -91270.836    246.99941    20721    226700.82    27.782877    15.556157     216.2867   -148.49422    434.69187    23.519766    22.173721   0.69166413    435.38354   -19.614172   -3900.8718 
   29900   -101428.43   -91263.269    246.88355    20721    226438.67   -6.4042626   -44.943294    78.924661   -53.194154    434.45482    23.512575    22.166941   0.81018907    435.26501   -48.881904   -3883.0735 
   30000   -101498.26   -91248.579     248.9361    20721    226674.14     10.43364    80.237113    13.139319   -62.075511    434.75492    23.516677    22.170808   0.66013901    435.41506   -46.449043   -3896.6827 
   30100   -101418.81   -91210.297    247.93626    20721    226525.95   -31.900022    70.176904   -122.52381   -43.353164    434.50235     23.51582    22.170001   0.78642575    435.28877    -56.50256   -3928.8995 
   30200    -101486.6   -91210.251    249.58385    20721    226491.57   -18.522536    76.053215   -43.629577   -87.991247     434.3919    23.517025    22.171136   0.84165129    435.23355   -61.877327   -3926.8291 
   30300   -101414.53   -91221.591    247.55808    20721    226517.37    39.683526    71.623396    108.11189   -60.684713    434.29081    23.521101    22.174979   0.89219327    435.18301   -57.559222   -3922.0374 
   30400   -101413.51   -91223.314    247.49143    20721    226458.36    50.148204    112.30286    242.59159   -204.44984    434.39905    23.515107    22.169328   0.83807434    435.23713   -61.417373   -3920.7116 
   30500   -101440.63   -91185.156     249.0768    20721    226476.78   -115.77137    -58.84737   -6.7967612   -281.66999    434.34704    23.517471    22.171557   0.86407826    435.21112   -51.521497   -3961.6403 
   30600   -101381.04   -91151.985    248.43518    20721    226588.03    95.417016    30.851629    195.19845    60.200968    434.47566    23.519765    22.173719   0.79977043    435.27543   -71.690569   -3982.7442 
   30700    -101387.9   -91200.867     247.4147    20721    226721.06   -28.956115   -38.441202   -175.98199    127.55485    434.55624    23.524486     22.17817   0.75947801    435.31572   -33.458733   -3963.6123 
   30800    -101459.7   -91186.497    249.50743    20721    226660.03   -35.520577   -44.965424   -113.99706    52.400748     434.5669    23.521032    22.174914   0.75415179    435.32105   -46.989093   -3968.5688 
   30900   -101412.12   -91189.335    248.28284    20721    226623.76   -82.533386    55.348565   -177.14192   -125.80681    434.58794    23.518581    22.172603   0.74363223    435.33157   -17.723951   -3994.3002 
   31000   -101417.47    -91172.84     248.8136    20721     226598.7    20.960543    175.47964    126.06268   -238.66069    434.59677    23.517041    22.171151   0.73921343    435.33599   -48.001789   -3987.3203 
   31100   -101437.66   -91168.144    249.41789    20721    226656.03   -18.587283   -155.56072     293.3018   -193.50293    434.39895     23.52537    22.179004   0.83812743    435.23707   -43.420784   -3994.2787 
   31200   -101355.46   -91172.758    247.30943    20721    226540.96   -46.717092    62.535204   -292.55848    89.872002    434.30992    23.521808    22.175646   0.88263983    435.19256   -51.582687   -3982.2219 
   31300   -101431.25   -91164.598    249.34829    20721    226486.79    61.189053    135.18577    43.143999    5.2373912    434.50255    23.513782    22.168079   0.78632696    435.28887   -38.743396   -4015.0284 
   31400   -101295.21   -91125.225    247.00071    20721    226553.35   -1.6101473   -11.789953   -49.563827    56.523338    434.60719    23.514406    22.168667    0.7340056    435.34119   -52.861066   -4033.2521 
   31500    -101372.2   -91152.627    248.20488    20721       226632    59.646107    44.031423    253.23834   -118.33144    434.23308    23.528616    22.182064   0.92106127    435.15414   -67.413475   -3992.6514 
   31600   -101354.78    -91139.29    248.10578    20721    226460.51   -57.436767    15.612228   -123.14737   -64.775157    434.05114    23.524641    22.178316    1.0120279    435.06317   -59.963192   -4014.5651 
   31700   -101292.71   -91142.231    246.52696    20721    226520.91   -25.795611   -29.310003    98.138169     -146.215    434.12426    23.525797    22.179406   0.97546859    435.09973   -50.418709   -4021.4056 
   31800   -101367.31     -91116.5    248.96357    20721    226518.47    13.095965   -43.660012     89.25734   -6.3094345    434.11312    23.525972    22.179571   0.98104223    435.09416   -74.087472   -4026.6979 
   31900   -101373.35   -91102.323    249.45463    20721    226512.67   -20.942908    60.548706    42.486309   -165.86374    434.03112    23.527892    22.181382    1.0220383    435.05316   -70.687657   -4045.2125 
   32000   -101287.09   -91082.449    247.84223    20721    226442.21    59.537721   -99.052803    143.45412    134.21185    434.07314    23.523094    22.176858    1.0010285    435.07417   -91.131499   -4050.6515 
   32100   -101339.95   -91062.252    249.61663    20721    226453.33    92.257503    176.53582   -105.72279    205.95948    434.28425    23.517954    22.172012   0.89547352    435.17973   -91.233605   -4074.1745 
   32200   -101336.25   -91019.394    250.56757    20721    226374.28   -34.604038    169.99254   -358.48009    84.675442    434.33183     23.51256    22.166927   0.87168299    435.20352   -81.334299   -4124.1021 
   32300   -101347.57   -91036.529     250.4265    20721    226658.47    40.325901    -64.55959    154.67661     30.86068    434.60823    23.519832    22.173783   0.73348454    435.34172   -78.310038   -4108.4225 
   32400   -101260.49   -91049.697     247.9918    20721    226366.69   -28.574795   -5.4801888   -55.216339   -25.027857    434.49735    23.507687    22.162333     0.788925    435.28627   -67.541923   -4111.2405 
   32500    -101288.9   -91025.041    249.28054    20721    226490.49   -24.390773   -31.056422   -84.370021    42.254123    434.43885    23.515698    22.169885   0.81817666    435.25702   -56.936235   -4146.0613 
   32600   -101185.53   -91027.709    246.70511    20721    226437.68    43.082813    379.75414    64.094192    -314.5999    434.54502    23.510084    22.164592   0.76508792    435.31011   -80.476108   -4126.1523 
   32700   -101248.92   -91036.185    248.03899    20721    226289.86   -58.720098   -251.35901   -140.16061    215.35933    434.34381    23.507852    22.162488   0.86569433    435.20951   -70.544423        -4128 
   32800   -101289.64    -90978.91    250.41895    20721     226379.3   -40.771334   -73.742208    96.644899   -145.21669    434.39796    23.511032    22.165486   0.83862025    435.23658   -86.248495   -4170.9975 
   32900   -101244.88   -90962.074    249.74077    20721     226430.4    51.262028    140.38979    11.500174    1.8961164    434.38394    23.514064    22.168345   0.84563219    435.22957   -98.086438   -4178.7873 
   33000   -101210.11   -90947.249    249.25623    20721    226377.34    2.5455754   -108.20422   -108.79111    224.63206    434.08509    23.519401    22.173376   0.99505518    435.08014   -81.734561   -4209.3886 
   33100   -101329.88    -90973.74    251.52186    20721    226439.47   -68.045575   -78.491303   -230.84673    105.20131    434.37039    23.514902    22.169135     0.852404     435.2228    -93.94784   -4168.4955 
   33200   -101160.27   -90964.961    247.61555    20721    226310.76    70.385551    237.02918    181.22144   -207.09397    434.17022    23.513636    22.167942   0.95249051    435.12271   -94.410568   -4188.4415 
   33300   -101212.59   -90952.588    249.18679    20721    226227.84   -13.044608   -22.846446    287.03603   -303.32341    433.86656    23.517554    22.171635     1.104319    434.97088   -89.698903   -4206.2646 
   33400   -101221.06   -90953.685    249.36601    20721    226449.46    72.289166    20.447463    60.104063    136.31597    434.18934    23.520323    22.174246   0.94293221    435.13227   -88.520436   -4204.4834 
   33500   -101113.78   -90879.804     248.5548    20721     226506.8     16.08519   -22.581725   -245.10798    315.94528      434.364    23.518571    22.172594   0.85560174     435.2196    -96.75698   -4263.0943 
[...]
  491800   -95704.829   -84204.837    279.30275    20721    221379.88    89.474113    66.530143    195.93746    5.9547388    424.44603     23.52096    22.174846    5.8145839    430.26062     5552.091   -23807.133 
  491900   -95951.677   -84232.442    284.62756    20721    221722.74   -55.586843    22.311233   -278.45504    89.383273    425.01286    23.523465    22.177208    5.5311683    430.54403    5554.4674   -23766.576 
  492000   -95762.519   -84197.664    280.87812    20721    221299.92     71.66264   -14.379456    259.04392   -29.676542    424.45562    23.516447    22.170591    5.8097917    430.26541    5550.6329   -23816.007 
  492100   -95899.482   -84143.326    285.52426    20721     221546.4   -32.744069   -48.298996    70.796279   -120.72949    424.28308    23.534323    22.187444    5.8960602    430.17914    5554.8357   -23865.425 
  492200   -95838.521   -84123.357     284.5287    20721    221328.21   -19.633827   -71.916631    108.36226   -95.347111    424.24957     23.52366    22.177392    5.9128164    430.16238    5521.2845   -23861.282 
  492300   -95836.062   -84155.743    283.68241    20721    221525.69    54.076186    240.19866   -135.92702    57.956923    424.58969    23.524724    22.178395    5.7427563    430.33244    5542.5264   -23847.465 
  492400   -95800.811   -84180.629    282.22184    20721    221499.11    19.840966   -1.3480062    79.507823    -18.63692    424.26946    23.532189    22.185432    5.9028709    430.17233    5543.0337   -23824.565 
  492500   -95794.861    -84194.18     281.7482    20721    221568.85    61.934322   -1.4285724    92.275946    94.955593    424.35944    23.533398    22.186572    5.8578788    430.21732    5550.9107   -23819.149 
  492600   -95686.685   -84115.558    281.03044    20721    221691.67    69.479672    69.106552   -141.43544     280.7679    424.46103    23.537102    22.190064    5.8070867    430.26811    5542.7399   -23885.729 
  492700   -95784.662   -84137.539    282.87616    20721    221695.72   -13.822574   -110.81797    203.85549   -134.50524    424.54818    23.534901    22.187989    5.7635109    430.31169    5542.1888   -23861.002 
  492800   -95750.921   -84128.398     282.2787    20721     221644.1   -87.193289   -82.252845    -136.4867   -42.840319    424.80932    23.524927    22.178586    5.6329388    430.44226    5553.3468   -23880.555 
  492900   -95724.509    -84116.99     281.9143    20721    221320.89     26.83511    28.744398   -43.045659    94.806591     424.5322    23.515439    22.169641    5.7715011     430.3037    5562.2289   -23917.016 
  493000   -95707.138   -84104.645    281.79222    20721    221278.79    65.268517   -22.877786    35.995866    182.68747    424.23916    23.521322    22.175187    5.9180189    430.15718    5548.7822   -23923.547 
  493100   -95794.682   -84162.012    282.52512    20721    221259.36    43.946206    159.65177    21.240387   -49.053543    424.11248    23.523802    22.177525    5.9813589    430.09384    5561.9849   -23880.187 
  493200   -95820.375   -84178.927    282.73834    20721    221565.17    76.130455    162.91789   -136.04504    201.51851    424.56887    23.527397    22.180915    5.7531642    430.32204    5574.9665   -23870.435 
  493300   -95784.548   -84169.255     282.1031    20721    221651.17   -29.949039    48.062285   -170.68089    32.771489    424.79951    23.525574    22.179196    5.6378447    430.43736    5591.8923   -23888.769 
  493400   -95803.637   -84150.202    283.02947    20721    221376.87 -0.043573323      140.001    169.68838    -309.8201     424.5082    23.519078    22.173072    5.7834999     430.2917    5586.5023   -23914.454 
  493500   -95877.622   -84139.326     285.0905    20721     221576.7   -105.81991    -129.6516   -126.43404   -61.374083    425.23897    23.509464    22.164008    5.4181126    430.65709    5602.7873   -23934.129 
  493600   -95833.797   -84149.316    283.78349    20721    221489.74    -9.364854   -127.22609    274.33324   -175.20171    425.19105    23.506175    22.160907    5.4420741    430.63313    5593.7629   -23921.159 
  493700   -95712.974   -84077.457    282.59429    20721    221699.43    49.606681     36.68541    80.731894     31.40274    425.62847    23.505212    22.159999    5.2233634    430.85184    5574.1711   -23969.428 
  493800   -95837.217   -84152.159    283.79749    20721       221581   -8.3142339   -8.7739761    90.679188   -106.84791    425.48284    23.502954    22.157871    5.2961801    430.77902    5597.7507   -23922.104 
  493900   -95761.877   -84111.083    282.96534    20721    221558.28   -16.743868    27.153765   -195.04234    117.65697    425.37104    23.504837    22.159646    5.3520775    430.72312    5587.6995   -23955.311 
  494000   -95690.636   -84080.343    281.98166    20721    221482.01   -18.606037   -225.73581     130.2622    39.655505    425.23335    23.504596    22.159418    5.4209251    430.65427    5577.2618   -23979.247 
  494100   -95802.732    -84099.12    284.24814    20721    221538.53   -44.402279   -229.05471    100.07904   -4.2311651    425.02808    23.513271    22.167597    5.5235614    430.55164    5572.9041   -23955.049 
  494200   -95617.113   -84117.023    279.30513    20721     221849.1    73.649617    170.46879    67.980115   -17.500051    425.06817    23.528636    22.182083    5.5035135    430.57169    5575.9108   -23935.516 
  494300   -95790.133   -84098.187    283.96477    20721    221390.54   -5.8931047   -67.391551    240.14352   -190.43128    424.79751    23.511794    22.166204    5.6388442    430.43636    5575.2707   -23970.968 
  494400   -95779.726   -84041.322    285.09312    20721    221264.47   -48.996375   -144.56544   -32.292775    29.869086     424.8199    23.504479    22.159308    5.6276488    430.44755    5578.8137   -24036.121 
  494500   -95710.091   -84022.696    283.85426    20721    221212.88   -59.175669   -164.65104   -169.23085    156.35488    424.83907    23.501209    22.156225    5.6180656    430.45713    5556.0418    -24033.88 
  494600   -95782.644   -84059.713    284.71732    20721     221294.1    35.661659    28.873108   -45.160552    123.27242    425.06348    23.499317    22.154442    5.5058593    430.56934     5570.591   -24015.684 
  494700   -95793.646   -84098.942    284.03177    20721    221312.95     83.99478    18.707656   -7.3338932    240.61058    425.57459    23.486202    22.142077     5.250305     430.8249    5572.8258   -23980.634 
  494800   -95798.518   -84083.175    284.53305    20721    221108.41   -133.27566   -229.96804    -406.5721    236.71315        425.4    23.480163    22.136384    5.3376018     430.7376    5564.2019   -23987.575 
  494900   -95764.663   -84112.849    282.99008    20721    221241.72   -2.2162822    -65.42124   -125.55636    184.32875    425.23339    23.491841    22.147393    5.4209061    430.65429    5578.8592   -23975.671 
  495000   -95794.699   -84104.204    283.92954    20721    221299.65    30.168191   -112.58069   -11.053882    214.13914    425.09614    23.498709    22.153868    5.4895296    430.58567    5560.2109   -23964.981 
  495100   -95642.946   -84128.784    279.64689    20721    221238.55   -4.3833157    129.69756    235.04871   -377.89622    425.06163    23.496418    22.151709    5.5067856    430.56841    5568.1456   -23949.145 
  495200   -95768.477   -84162.593    281.87459    20721    221189.65    63.281729    162.65207    85.952988   -58.759873    424.75906    23.502188    22.157148    5.6580705    430.41713    5576.4111   -23931.303 
  495300   -95770.978   -84189.016    281.29358    20721    221169.32    82.894414     141.4993    216.33503   -109.15109    425.05779    23.492848    22.148343    5.5087028     430.5665    5586.7881   -23917.612 
  495400   -95722.287   -84136.435    281.38806    20721    221166.13    47.183827     -2.13016    199.35872   -55.677082    424.81088    23.499504    22.154618    5.6321581    430.44304    5581.0966   -23966.233 
  495500   -95798.705   -84161.529    282.63456    20721    221138.67    21.819515   -21.009187   -93.133361    179.60109    424.52094    23.506069    22.160807    5.7771313    430.29807    5599.0303   -23958.418 
  495600   -95691.397   -84124.144    280.93635    20721    221041.65   -117.73631   -126.82342   -159.52235   -66.863171    424.23282    23.508891    22.163468    5.9211898    430.15401    5574.9575   -23970.717 
  495700    -95774.75   -84123.203    282.98361    20721    220912.29    -47.64477   -111.34231     305.7478   -337.33981     424.2436    23.501712      22.1567    5.9158007     430.1594    5576.9984    -23980.87 
  495800   -95610.485   -84081.284    280.01216    20721    220968.05    94.865997   -28.586771    33.176766      280.008    424.21341    23.505514    22.160284    5.9308948    430.14431    5570.3234    -24022.83 
  495900   -95670.317   -84081.148    281.46863    20721    221291.56     25.10491    312.89898   -87.498101   -150.08615    424.18912    23.523388    22.177135    5.9430382    430.13216    5580.9961   -24021.627 
  496000   -95833.899   -84138.711    284.04354    20721    220906.88    71.716645    46.602777   -22.521142     191.0683    423.97642    23.508828    22.163409    6.0493918    430.02581    5569.6521   -23971.629 
  496100    -95847.94   -84113.691     284.9922    20721    221051.57   -168.30998    -183.3235   -183.26193   -138.34449    424.29376     23.50773    22.162373    5.8907223    430.18448    5596.1097   -24006.237 
  496200   -95789.307   -84136.435    283.01579    20721    220877.31   -80.564928   -89.423228   -61.773238   -90.498317    423.96241    23.507643    22.162291    6.0563941    430.01881    5591.0342   -23989.569 
  496300   -95805.972   -84105.003    284.18393    20721    221124.68   -36.776018    83.054982   -132.22596   -61.157072    424.20673    23.514029    22.168312    5.9342367    430.14096     5596.977    -24025.17 
  496400   -95734.101   -84136.397    281.67591    20721    220901.09    17.901543    81.625504  -0.11383027   -27.807044    423.97117    23.508666    22.163256    6.0520169    430.02318    5601.6529   -24010.152 
  496500   -95698.069   -84115.484     281.3087    20721     220998.3    180.46535     25.58109    201.54055    314.27442    423.91989     23.51526    22.169472    6.0776547    429.99755    5598.1195   -24029.738 
  496600    -95738.93   -84106.333    282.52335    20721    221022.08    27.205749   -198.10701    257.93934     21.78491    423.96111    23.515382    22.169587    6.0570469    430.01815    5585.8332    -24021.27 
  496700   -95869.902   -84132.727    285.06326    20721    220891.64   -31.907241   -36.415844   -92.147053    32.841172    423.80117    23.512878    22.167226    6.1370153    429.93818    5575.5195   -23989.705 
  496800   -95912.942   -84180.434    284.94992    20721    220934.79    28.228278   -182.37655    89.237012    177.82437    423.78251    23.515692    22.169879    6.1463438    429.92886    5597.9222   -23967.056 
  496900   -95864.068   -84125.793    285.08998    20721    221315.29    -2.624417    42.919981    50.875493   -101.66873    423.96773    23.530791    22.184114    6.0537338    430.02147    5576.7985   -23986.453 
  497000   -95801.866    -84145.51    283.10041    20721    221051.61    13.848746   -128.50017   -155.81054    325.85695    423.17666     23.53874    22.191608    6.4492712    429.62593    5593.6845   -23996.842 
  497100   -95752.497    -84172.81    281.23831    20721    220794.25    27.491833    126.09857   -90.827153    47.204086      422.932    23.531836      22.1851    6.5715989     429.5036    5601.4115   -23987.361 
  497200   -95790.264   -84152.295    282.65385    20721    220715.23    32.763608    46.088115    71.569888   -19.367178    422.81761    23.530808     22.18413    6.6287966     429.4464    5607.3707   -24015.821 
  497300   -95811.613   -84143.918     283.3758    20721    220966.72    2.9553455    58.396468   -119.90504    70.374612    423.00241    23.539066    22.191916    6.5363955     429.5388    5604.1719   -24013.339 
  497400   -95823.498   -84140.764    283.74106    20721    220887.94    36.593554   -59.897179    44.681269    124.99657    422.82244    23.539878    22.192681    6.6263818    429.44882    5611.5072   -24030.928 
  497500   -95803.559   -84163.577    282.70271    20721    220855.33    22.442369    53.767068    44.493768   -30.933728    422.57271    23.545094    22.197599    6.7512438    429.32396    5631.3367   -24029.653 
  497600   -95782.745   -84181.839    281.75367    20721    220887.96    -31.38897    -45.06837   -12.815727   -36.282813    422.71345    23.542913    22.195543    6.6808731    429.39433    5641.1869   -24019.277 
  497700   -95811.677   -84146.794    283.30749    20721    221077.55    47.752844    134.46768   -135.02818    143.81903    423.18135     23.53999    22.192787    6.4469258    429.62827    5620.9944    -24034.19 
  497800   -95877.001   -84178.321    284.12834    20721    221014.04   -41.230625   -299.75256    182.58948   -6.5287932    423.17172    23.536876    22.189852    6.4517403    429.62346    5644.1161   -24025.475 
  497900    -95802.29   -84154.072    282.90276    20721    220972.83    70.278693     53.31115     283.3625   -125.83757    423.09427    23.536836    22.189813    6.4904661    429.58473    5653.8486    -24069.21 
  498000   -95727.334   -84155.624     281.0446    20721    220937.65    4.1684108    206.01578   -210.58525    17.074704    423.33142    23.528369    22.181831     6.371892    429.70331    5638.5423    -24050.42 
  498100   -95699.194   -84122.297    281.17056    20721    220771.71    15.221346    119.78918     55.17175    -129.2969    423.35555    23.518861    22.172867    6.3598225    429.71538    5645.1397   -24099.734 
  498200   -95799.591   -84186.511    282.04935    20721    220627.22    60.201277   -13.316021      68.3906    125.52925    423.34056    23.511581    22.166003    6.3673184    429.70788    5649.4465   -24046.462 
  498300   -95860.401   -84192.862    283.37201    20721    220866.55     69.50408   -36.504453    485.01267   -239.99598    423.71191    23.514018    22.168302    6.1816436    429.89356    5639.2751   -24026.622 
  498400   -95743.595   -84150.974    281.55246    20721    220875.27    45.357991    231.30038   -141.78079     46.55439    423.47282     23.52112    22.174997    6.3011905    429.77401    5629.4533   -24060.849 
  498500   -95783.983   -84158.948    282.33971    20721    220879.24     19.80625  -0.64458749   -169.23924    229.30258    423.62271    23.517169    22.171272    6.2262442    429.84896    5633.3345   -24055.163 
  498600   -95731.421   -84131.305    281.73448    20721    220739.97   -40.582484   -98.436545   -170.34396    147.03305    423.15966    23.522614    22.176405    6.4577706    429.61743    5625.5448   -24077.596 
  498700   -95869.744   -84166.726    284.23369    20721     220757.8   -12.009802   -231.17004    160.22157    34.919055    423.10783    23.525004    22.178659    6.4836834    429.59152    5664.9496   -24087.475 
  498800   -95738.185   -84157.547    281.26144    20721    220967.09   -11.838128    165.30242   -182.16879   -18.648023    422.88124    23.542458    22.195114    6.5969798    429.47822    5654.5245   -24079.695 
  498900   -95782.334   -84188.344     281.5857    20721    220586.61   -75.441006   -144.84132   -85.802761    4.3210674    422.88426    23.522096    22.175917    6.5954678    429.47973    5632.2992    -24038.31 
  499000   -95793.582   -84186.828     281.8957    20721    220822.36    49.311733   -88.819149    294.57578   -57.821436    423.07104    23.529467    22.182866     6.502079    429.57312    5647.6451   -24054.061 
  499100   -95734.224   -84119.524    282.08869    20721    221110.08     82.63386    229.54225   -62.796029    81.155361    423.17291    23.541957    22.194641    6.4511448    429.62406     5634.593    -24100.03 
  499200    -95647.81   -84136.193     279.5851    20721    221061.61    26.490089    87.859052   -25.248175     16.85939    423.32529    23.535139    22.188214    6.3749571    429.70024    5650.9719   -24101.334 
  499300   -95660.073   -84117.847    280.32849    20721    220835.29   -48.007001   -43.967775    32.913009   -132.96624    423.06081     23.53044    22.183784    6.5071967      429.568     5653.076    -24126.64 
  499400   -95770.684   -84156.748    282.07013    20721    220934.48    55.220628    -26.52257    118.16294    74.021519    423.39602    23.526405     22.17998    6.3395904    429.73561    5668.7512   -24108.373 
  499500    -95830.97   -84144.457    283.83282    20721     221152.1   -49.747138    65.296908    35.475077    -250.0134    423.67665    23.530192     22.18355    6.1992728    429.87593    5674.5194   -24115.596 
  499600   -95870.044   -84168.662    284.19396    20721    221033.21   -55.001648   -218.68834   -143.14283    196.82623    423.76157     23.52151    22.175364    6.1568128    429.91839    5677.5874   -24099.549 
  499700   -95767.752   -84125.371    282.76099    20721    220895.79   -2.4921728     45.47752    241.77642   -294.73046    423.47116    23.522258     22.17607    6.3020185    429.77318    5662.2952   -24136.918 
  499800   -95647.884   -84068.466    281.23179    20721    220926.47   -145.50825   -57.163086   -264.22572   -115.13595    423.53023    23.522251    22.176063    6.2724843    429.80272    5661.0327   -24185.138 
  499900   -95702.091   -84113.556     281.4532    20721    220738.48    127.14277    149.85374    150.44639    81.128199    423.17449    23.522122    22.175941    6.4503559    429.62484    5630.6685   -24131.267 
  500000   -95770.701   -84148.748    282.26484    20721     220831.1   -72.856625    48.996822   -221.58944   -45.977259    423.51889    23.517488    22.171573    6.2781531    429.79705     5660.291   -24115.157 
Loop time of 70989 on 32 procs for 500000 steps with 20721 atoms

Performance: 1.217 ns/day, 19.719 hours/ns, 7.043 timesteps/s
97.4% CPU use with 32 MPI tasks x no OpenMP threads

MPI task timing breakdown:
Section |  min time  |  avg time  |  max time  |%varavg| %total
---------------------------------------------------------------
Pair    | 13550      | 14572      | 16347      | 825.1 | 20.53
Bond    | 0.79769    | 0.88761    | 1.2113     |   9.4 |  0.00
Kspace  | 13377      | 15155      | 16180      | 810.6 | 21.35
Neigh   | 10608      | 12720      | 14615      |1496.4 | 17.92
Comm    | 491.23     | 1785.4     | 3851.3     |2564.4 |  2.52
Output  | 6.628      | 31.119     | 41.762     | 202.9 |  0.04
Modify  | 25373      | 26641      | 29679      | 859.5 | 37.53
Other   |            | 84.23      |            |       |  0.12

Nlocal:    647.531 ave 695 max 604 min
Histogram: 3 0 5 9 4 0 3 2 2 4
Nghost:    7317.94 ave 7848 max 6818 min
Histogram: 5 1 4 5 5 1 1 0 7 3
Neighs:    238508 ave 270759 max 213778 min
Histogram: 3 5 8 4 1 0 2 3 1 5
FullNghs:  477018 ave 539608 max 432504 min
Histogram: 3 8 8 1 1 0 2 3 1 5

Total # of neighbors = 15264586
Ave neighs/atom = 736.672
Ave special neighs/atom = 2
Neighbor list builds = 500000
Dangerous builds not checked
write_data production.R1
PPPM initialization ...
  extracting TIP4P info from pair style
WARNING: Using 12-bit tables for long-range coulomb (../kspace.cpp:316)
  G vector (1/distance) = 0.345922
  grid = 400 48 48
  stencil order = 5
  estimated absolute RMS force accuracy = 0.000401666
  estimated relative force accuracy = 1.2096e-06
  using double precision FFTs
  3d grid and FFT values/proc = 67260 38400
write_restart restartproduction.R1
PPPM initialization ...
  extracting TIP4P info from pair style
WARNING: Using 12-bit tables for long-range coulomb (../kspace.cpp:316)
  G vector (1/distance) = 0.345922
  grid = 400 48 48
  stencil order = 5
  estimated absolute RMS force accuracy = 0.000401666
  estimated relative force accuracy = 1.2096e-06
  using double precision FFTs
  3d grid and FFT values/proc = 67260 38400
Total wall time: 19:43:09
