LAMMPS (30 Jul 2016)
# Sets up LAMMPS simulation for transient melting of ice: TIP4P/Ice
# Ensure cold thermostats do not move
# Thinbox: 16x1x1
# Defects
# Order param l=2

#### setting MD parameters ####
units real
boundary p p p
atom_style full

# read ice box in restart file
#read_data ice-ih-restart.data
read_restart restart.state
  orthogonal box = (0.393622 0.0212404 0.0200248) to (435.682 23.51 22.1645)
  32 by 1 by 1 MPI processor grid
  20736 atoms
  13824 bonds
  6912 angles
  2 = max # of 1-2 neighbors
  1 = max # of 1-3 neighbors
  1 = max # of 1-4 neighbors
  2 = max # of special neighbors

#replicate 16 boxes, 16x1x1


#### force field definition ####
pair_style      lj/cut/tip4p/long 2 1 1 1 0.1577 10.0
pair_modify	tail yes

kspace_style	pppm/tip4p 1.0e-6

bond_style	harmonic
angle_style	harmonic
dihedral_style	none
improper_style	none

bond_coeff	1 450.0 0.9572
angle_coeff	1 55.0 104.52


# reset pair coeff
pair_coeff	* * 0.0 0.0

#OO
pair_coeff	2 2 0.21085 3.1668
#OH
pair_coeff	* 1 0.0000 0.0000

neighbor        2.0 bin
neigh_modify    every 1 delay 1 check no

timestep	2.0
fix		constraints all shake 0.000001 20 0 b 1 a 1
  0 = # of size 2 clusters
  0 = # of size 3 clusters
  0 = # of size 4 clusters
  6912 = # of frozen angles

group water type 1 2
20736 atoms in group water

#*********** SIMULATION PARAMETER TO ADJUST ****************
#Box dimensions
variable lx equal lx
variable ly equal ly
variable lz equal lz

### Temperature of the hot and cold regions ####
variable thi equal 375
variable tlo equal 215
variable runpressure equal 0.986923
# Configuration equilibrated in density and temperature

# Define dx here

variable lx equal lx
variable ly equal ly
variable lz equal lz

variable xlo equal xlo
variable xhi equal xhi


variable dx equal 2.0

### ADD IN DEFECTS AT THE CENTRE OF THE HOT THERMOSTAT ###
variable x1 equal ${lx}/4.0
variable x1 equal 435.287955383596/4.0
variable y1 equal ${ly}/2.0
variable y1 equal 23.4887192294401/2.0
variable z1 equal ${lz}/2.0
variable z1 equal 22.1444504209538/2.0

region kill1 sphere ${x1} ${y1} ${z1} 3
region kill1 sphere 108.821988845899 ${y1} ${z1} 3
region kill1 sphere 108.821988845899 11.7443596147201 ${z1} 3
region kill1 sphere 108.821988845899 11.7443596147201 11.0722252104769 3
delete_atoms region kill1 compress no bond yes mol yes
Deleted 15 atoms, new total = 20721
Deleted 10 bonds, new total = 13814
Deleted 5 angles, new total = 6907




variable thip equal ${thi}*2.0/3.0
variable thip equal 375*2.0/3.0
variable tlop equal ${tlo}*2.0/3.0
variable tlop equal 215*2.0/3.0
variable cbl equal ${lx}*3.0/4.0-${dx}
variable cbl equal 435.287955383596*3.0/4.0-${dx}
variable cbl equal 435.287955383596*3.0/4.0-2
variable cbh equal ${lx}*3.0/4.0+${dx}
variable cbh equal 435.287955383596*3.0/4.0+${dx}
variable cbh equal 435.287955383596*3.0/4.0+2
variable hbl equal ${lx}*1.0/4.0-${dx}
variable hbl equal 435.287955383596*1.0/4.0-${dx}
variable hbl equal 435.287955383596*1.0/4.0-2
variable hbh equal ${lx}*1.0/4.0+${dx}
variable hbh equal 435.287955383596*1.0/4.0+${dx}
variable hbh equal 435.287955383596*1.0/4.0+2


#***************************************************
## EQUILIBRATION PERIOD - to reach the steady state ###
#run 0

#reset the timestep to start your production run
reset_timestep 0

# define a group to perform averages
#group s1 type 1
###*** SYSTEM THERMOSTATTING: HOT and COLD regions ***###

fix NVE all nve
fix PRESS all press/berendsen aniso ${runpressure} ${runpressure} 500000 couple yz
fix PRESS all press/berendsen aniso 0.986923 ${runpressure} 500000 couple yz
fix PRESS all press/berendsen aniso 0.986923 0.986923 500000 couple yz


### Apply THERMOSTATS ###

#set up the "hot region" in the middle of the box
region hot block ${hbl} ${hbh} 0 ${ly} 0 ${lz} units box
region hot block 106.821988845899 ${hbh} 0 ${ly} 0 ${lz} units box
region hot block 106.821988845899 110.821988845899 0 ${ly} 0 ${lz} units box
region hot block 106.821988845899 110.821988845899 0 23.4887192294401 0 ${lz} units box
region hot block 106.821988845899 110.821988845899 0 23.4887192294401 0 22.1444504209538 units box


#set up the "cold region" at the left end of the box
region cold block ${cbl} ${cbh} 0 ${ly} 0 ${lz} units box
region cold block 324.465966537697 ${cbh} 0 ${ly} 0 ${lz} units box
region cold block 324.465966537697 328.465966537697 0 ${ly} 0 ${lz} units box
region cold block 324.465966537697 328.465966537697 0 23.4887192294401 0 ${lz} units box
region cold block 324.465966537697 328.465966537697 0 23.4887192294401 0 22.1444504209538 units box

#set up the "cold region" at the right end of the box
#region cold2 block ${h2bl} ${xhi} 0 ${ly} 0 ${lz} units box


#Cold regions  unification
#region cold union 2 cold1 cold2 units box

#Create group of cold molecules
####group cool_ice region cold
####group cool_ice include molecule

####compute cold_temp cool_ice temp
####fix cold_rescale water temp/rescale 1 ${tlo} ${tlo} 0.0001 1.0
####fix_modify cold_rescale temp cold_temp

#this calculates the temperature using only the atoms in the "hot region"
#compute hot_temp all temp/region hot

# calculate the temperature using only WATER in the "hot region"
compute hot_temp water temp/region hot

#this calculates the temperature using only WATER in the "cold region"
compute cold_temp water temp/region cold


#set up a basic velocity rescale for the hot region WATER with thip
fix hot_rescale water temp/rescale 1 ${thip} ${thip} 1.0 1.0
fix hot_rescale water temp/rescale 1 250 ${thip} 1.0 1.0
fix hot_rescale water temp/rescale 1 250 250 1.0 1.0
#change the thermostat to only act on the "hot region"
#this is done by passing it the "hot temp" compute that we defined above
fix_modify hot_rescale temp hot_temp

#set up a basic velocity rescale for the cold region
fix cold_rescale water temp/rescale 1 ${tlop} ${tlop} 1.0 1.0
fix cold_rescale water temp/rescale 1 143.333333333333 ${tlop} 1.0 1.0
fix cold_rescale water temp/rescale 1 143.333333333333 143.333333333333 1.0 1.0
#change the thermostat to only act on the "cold region"
#this is done by passing it the "cold temp" compute that we defined above
fix_modify cold_rescale temp cold_temp

### Ensure MOMENTUM CONSERVATION ###

#ensure that linear momentum is conserved despite the "thermostatting" by velocity rescaling
fix cons_mom all momentum 1 linear 1 1 1


thermo 100
thermo_style custom step pe etotal temp atoms vol press pxx pyy pzz lx ly lz xlo xhi f_cold_rescale f_hot_rescale

group ox type 2
6907 atoms in group ox
group hy type 1
13814 atoms in group hy
compute KE all ke/atom
variable TEMP atom c_KE*4186.8/(1.3806488*6.02214129)

compute cc1 all chunk/atom bin/1d x center 2 units box
#fix TPROFILE all ave/chunk 1 500 500 cc1 v_TEMP density/number file temp.dat
fix TPROFILEox ox ave/chunk 1 500 500 cc1 v_TEMP density/number file temp-ox.dat
fix TPROFILEhy hy ave/chunk 1 500 500 cc1 v_TEMP density/number file temp-hy.dat

compute orderparam ox orientorder/atom degrees 1 2 nnn 4 cutoff 3.5
compute cc2 ox chunk/atom bin/1d x center 2 units box
#fix ORDERPARAM all ave/chunk 1 500 500 cc2 c_orderparam[1] file order-param.dat
fix ORDERPARAM all ave/chunk 1 500 500 cc2 c_orderparam[1] file order-param.dat

restart 50000 config.restart

run 500000
PPPM initialization ...
  extracting TIP4P info from pair style
WARNING: Using 12-bit tables for long-range coulomb (../kspace.cpp:316)
  G vector (1/distance) = 0.34559
  grid = 405 48 48
  stencil order = 5
  estimated absolute RMS force accuracy = 0.000406144
  estimated relative force accuracy = 1.22309e-06
  using double precision FFTs
  3d grid and FFT values/proc = 67260 38880
Neighbor list info ...
  2 neighbor list requests
  update every 1 steps, delay 1 steps, check no
  max neighbors/atom: 2000, page size: 100000
  master list distance cutoff = 12.3154
  ghost atom cutoff = 12.3154
  binsize = 6.1577 -> bins = 71 4 4
Memory usage per processor = 12.7893 Mbytes
Step PotEng TotEng Temp Atoms Volume Press Pxx Pyy Pzz Lx Ly Lz Xlo Xhi cold_res hot_resc 
       0   -103679.61   -94858.088    214.25029    20721    226412.76   -75.904382   -199.13319   -96.529445    67.949487    435.28796    23.488719     22.14445   0.39362231    435.68158            0            0 
     100   -103600.15   -94593.413    218.74843    20721    226336.18    29.571774      231.309   -77.115202   -65.478477    435.25492    23.485638    22.141545   0.41013755    435.66506   -10.208468   -259.37163 
     200   -103559.04   -94547.381    218.86799    20721     226203.1    2.4159722    41.046048   -118.22152    84.423387    435.16845    23.481065    22.137235   0.45337613    435.62182   -2.4078075   -315.79105 
     300   -103553.82   -94537.077    218.99145    20721    226321.87   -8.3553495    72.165652   -121.27115    24.039453    435.30847    23.483451    22.139484   0.38336712    435.69183    3.2168154   -329.98138 
     400   -103533.59   -94487.371    219.70755    20721    226354.89    46.839988    203.78126    106.45721    -169.7185    435.22836    23.487326    22.143137   0.42342203    435.65178   -7.5229587   -371.32521 
     500   -103524.36   -94453.666    220.30197    20721    226274.77   -18.185465   -130.95798   -41.594023    117.99561    435.13739    23.485623    22.141531   0.46890431     435.6063    -1.715661   -410.06911 
     600   -103539.13   -94415.239     221.5938    20721    226298.47    111.00253    159.40843    60.274519    113.32463    435.14787     23.48657    22.142424    0.4636649    435.61154     5.354603   -464.35133 
     700   -103536.85   -94411.539    221.62848    20721     226183.1   -49.815924   -14.644691    150.80054   -285.60363    435.08019    23.482408    22.138501    0.4975031     435.5777   0.44948018   -457.85479 
     800    -103533.9   -94334.002     223.4399    20721    226395.26    63.638891    180.20587    97.789734   -87.078927    435.24352    23.489011    22.144725   0.41584223    435.65936   -14.782989   -521.75848 
     900   -103386.84    -94310.78    220.43208    20721    226311.79    44.235471    68.212088    200.15454   -135.66022    435.00277    23.491178    22.146769   0.53621517    435.53898   -18.582517   -542.86198 
    1000   -103507.97   -94222.006    225.53013    20721    226468.94   -27.691231   -90.548942    29.687165   -22.211915    435.35491    23.489827    22.145495   0.36014723    435.71505   -14.490264   -629.84582 
    1100   -103323.63   -94179.684    222.08088    20721    226566.48   -6.1654391     144.3903   -129.29366   -33.592963    435.44249    23.492522    22.148036   0.31635325    435.75885   -43.747423   -640.33329 
    1200   -103333.52   -94154.056     222.9437    20721    226516.95    21.321979   -11.598757    70.213686    5.3510096    435.45737    23.489553    22.145236   0.30891506    435.76628   -46.277821   -666.78131 
    1300   -103312.48   -94150.658    222.51506    20721    226460.65    -73.76021   -115.34843    97.856133   -203.78834    434.92835    23.500913    22.155946   0.57342305    435.50178   -41.501304   -673.42414 
    1400   -103355.58   -94117.373    224.37038    20721    226560.08   -1.5093598   -116.74398   -110.70477    222.92067    435.24806    23.497437    22.152669   0.41357154    435.66163   -28.579896   -722.00121 
    1500   -103321.89   -94118.761    223.51826    20721    226480.94   -17.908412   -40.432492   -119.00509    105.71235    435.39203    23.489448    22.145138   0.34158571    435.73361   -45.224636   -705.09543 
    1600    -103320.5   -94116.789    223.53238    20721     226578.9    21.660554   -19.847455    153.64827   -68.819149     435.3587    23.495427    22.150774   0.35824902    435.71695   -37.302782   -715.52058 
    1700   -103203.44   -94034.115    222.69728    20721    226541.89   -39.151362    131.27305   -22.936663   -225.79047    435.16123    23.498838     22.15399   0.45698354    435.61822   -62.420899   -770.15482 
    1800   -103271.63   -94021.186    224.66758    20721    226484.04    45.585696    76.419308    114.84839   -54.510608    435.44949    23.488059    22.143828   0.31285676    435.76234   -40.796063   -814.56073 
    1900   -103244.59   -94024.011    223.94225    20721    226650.15    3.0296459    3.6289778    52.275405   -46.815445    435.36908     23.49884    22.153992   0.35305831    435.72214    -26.74608   -821.17192 
    2000   -103281.54   -94020.696     224.9202    20721    226518.37    79.697461    91.207892   -65.082184    212.96667     435.5891    23.486074    22.141957    0.2430478    435.83215   -46.030271   -812.18588 
    2100   -103235.86   -93936.674     225.8513    20721    226550.35    -82.93649   -52.846031    6.4546419   -202.41808    435.40564     23.49268    22.148184   0.33478184    435.74042   -54.208479   -879.71154 
    2200   -103212.83   -93950.482    224.95662    20721    226426.17     24.46774    40.811075    115.21187   -82.619723    435.31435    23.488703    22.144435   0.38042716    435.69477   -44.338152   -885.35048 
    2300   -103144.87   -93880.364    225.00894    20721    226663.96    11.876391   -30.672998    89.819766   -23.517594    435.49653    23.496117    22.151425   0.28933436    435.78587   -59.622077   -932.39349 
    2400   -103235.56     -93899.3    226.75181    20721    226480.38   -22.777613   -14.752222   -216.08008    162.49947    435.40561    23.489052    22.144764    0.3347932    435.74041   -25.291467   -954.93405 
    2500    -103207.8   -93930.206    225.32689    20721     226531.1   -46.018097   -123.18857   -124.30188    109.43615    435.39388    23.491999    22.147542   0.34066099    435.73454   -25.179012   -921.58285 
    2600   -103170.49   -93883.309    225.55983    20721    226558.23   -33.391966     11.20694   -20.319242   -91.063595    435.47332    23.491263    22.146848    0.3009396    435.77426   -38.914954   -954.77979 
    2700   -103161.92    -93872.65    225.61046    20721    226501.19   -8.0844813   -80.823741    128.54839   -71.978091    435.26589    23.493902    22.149336   0.40465484    435.67055   -17.303373   -989.95968 
    2800   -103108.69   -93831.195    225.32448    20721    226515.84    87.548733    134.86496    71.253974    56.527265    435.33816    23.492711    22.148213   0.36852098    435.70668   -23.000217   -1031.0558 
    2900    -103153.8   -93817.048    226.76366    20721     226448.7   -26.778653   -35.903549    66.079525   -110.51193    435.33292    23.489371    22.145065   0.37114183    435.70406   -17.447233    -1047.418 
    3000   -103085.49   -93809.588    225.28571    20721    226475.06     1.409215   -43.206785     -139.905    187.33943    435.36756    23.489803    22.145472    0.3538176    435.72138   -35.692564   -1038.0803 
    3100   -102998.28   -93754.826     224.4978    20721    226404.11    45.679221   -61.959713    259.60346   -60.606088    435.15388    23.491889    22.147439   0.46066128    435.61454   -38.270321   -1094.1764 
    3200      -102934   -93720.848    223.76191    20721    226421.99     113.3364    226.46439    67.667832    45.876968    435.37083    23.486963    22.142794   0.35218739    435.72301   -45.304214   -1125.2905 
    3300   -103034.19   -93703.486    226.61674    20721    226596.64   -28.840613    9.7365621    17.097409   -113.35581    435.35065    23.496563    22.151846   0.36227375    435.71293   -54.747424   -1123.2526 
    3400   -102973.66    -93693.26    225.39513    20721    226532.42    33.764051    204.83878   -49.121944   -54.424678    435.26587    23.495521    22.150863    0.4046643    435.67054   -47.798864    -1145.238 
    3500   -103050.26   -93645.441    228.41695    20721    226661.02    25.894154    85.579896   -44.484212    36.586778    435.34612    23.500024    22.155108    0.3645383    435.71066   -44.643636   -1194.5386 
    3600   -103021.98   -93623.155    228.27138    20721    226562.93   -17.054782    73.407275   -61.525803   -63.045819    435.35093    23.494808    22.150191   0.36213545    435.71306   -44.479167    -1219.676 
    3700   -103030.93   -93579.784    229.54189    20721    226594.68    8.4919956    61.406965    47.918057   -83.849036    435.24053    23.499434    22.154552   0.41733672    435.65786   -73.769105   -1234.4233 
    3800   -102972.42   -93613.757    227.29594    20721     226630.5    84.752097    79.099559   -157.34675    332.50348    435.19759    23.502451    22.157396   0.43880533    435.63639   -54.417553   -1222.6476 
    3900    -102927.6   -93572.665    227.20529    20721    226496.18   -3.0393174   -56.497156   -185.77358    233.15278    435.25272    23.493997    22.149426   0.41124145    435.66396      -69.748   -1248.2475 
    4000   -102933.15   -93581.059    227.13633    20721    226663.58    16.435098   -100.41806   -67.260003    216.98335    435.47749    23.496611    22.151891   0.29885708    435.77634   -75.869554   -1232.1016 
    4100   -102975.31   -93522.466    229.58313    20721    226596.95    49.343208    159.52566    91.647498   -103.14354    435.34595    23.496706     22.15198   0.36462257    435.71058   -84.604113   -1285.7777 
    4200   -102872.22   -93507.429    227.44466    20721    226377.72    20.880302    88.398232    130.71821   -156.47553    435.13086    23.491141    22.146734   0.47216888    435.60303   -74.858381    -1316.798 
    4300    -102876.5   -93526.959    227.07418    20721    226460.91    74.552119   -38.520442    74.247523    187.92927    435.03335     23.49809    22.153285   0.52092277    435.55428   -80.333135   -1292.4359 
    4400   -102997.85   -93545.901     229.5615    20721     226416.4   -106.17979   -38.817054   -95.725601   -183.99672    435.12527    23.493299    22.148768   0.47496305    435.60024   -58.425231   -1290.4994 
    4500   -102934.46   -93509.023    228.91768    20721     226428.1    47.499423    224.09101   -27.663729   -53.929009     435.1667    23.492787    22.148285    0.4542477    435.62095   -72.034269    -1321.435 
    4600   -102950.66   -93444.655    230.87438    20721     226608.7   -84.726107   -124.90415   -80.914788   -48.359389    435.21207     23.50093    22.155962    0.4315656    435.64363   -86.537958   -1360.8647 
    4700   -102902.32   -93473.307    229.00451    20721    226393.65    10.212863   -11.243211    25.298026    16.583773    435.24559    23.488871    22.144593   0.41480264     435.6604   -41.210962    -1388.659 
    4800   -102916.02   -93439.418    230.16013    20721     226702.1   -72.837736   -223.41049    64.777997   -59.880712    435.44158    23.499577    22.154687    0.3168119    435.75839   -44.356683   -1407.9196 
    4900   -102820.87   -93395.705    228.91097    20721    226593.63    77.169459    100.08435    300.54505   -169.12103    435.41424    23.494692    22.150081   0.33048125    435.74472   -56.226353   -1449.9492 
    5000   -102802.71   -93312.281      230.496    20721    226612.87    5.8585942    159.26628    39.750566   -181.44106    435.41624    23.495635     22.15097   0.32948015    435.74572   -76.102809   -1509.9401 
    5100   -102845.21   -93337.803     230.9084    20721    226698.51    50.405531    155.57442    35.604121   -39.961951     435.4554    23.499018     22.15416   0.30990158     435.7653   -76.599857    -1485.787 
    5200   -102886.89   -93307.385    232.65941    20721    226600.75      36.8312    196.81168   -35.133447   -51.184629     435.6418    23.488924    22.144643   0.21670249     435.8585   -84.062976   -1512.5458 
    5300   -102921.26   -93418.265    230.80132    20721    226575.21    35.904167   -96.599105    191.14092    13.170686    435.43819     23.49309    22.148571   0.31850429     435.7567   -27.531163   -1461.1792 
    5400    -102891.3   -93395.737    230.62079    20721    226544.68   -23.696686   -20.592179    79.185613   -129.68349    435.31731    23.494769    22.150154   0.37894728    435.69625   -35.469927   -1471.8917 
    5500   -102798.35   -93396.997    228.33259    20721    226665.52    88.004202    106.36226    168.95669   -11.306345    435.43351    23.497898    22.153104   0.32084557    435.75435   -26.959279   -1482.8198 
    5600    -102894.5   -93398.076     230.6416    20721    226561.92   -64.458613   -179.33675     46.70756   -60.746653    435.38743    23.493771    22.149213   0.34388469    435.73132    -32.44991   -1472.1693 
    5700   -102837.07   -93380.472    229.67452    20721       226435    -5.370392    6.0516463    399.59452   -421.75734    435.32718    23.488815    22.144541   0.37401106    435.70119   -25.271379   -1505.2605 
    5800   -102814.93   -93379.514     229.1599    20721    226645.87    57.429621   -21.950084    132.36824    61.870711    435.26177    23.501515    22.156514   0.40671607    435.66848   -48.753679   -1479.5967 
    5900   -102751.63   -93366.883    227.92938    20721     226640.7    73.633473   -108.86564   -3.3904237    333.15649    435.30807    23.499997    22.155082   0.38356293    435.69164   -32.432497   -1511.6899 
    6000   -102788.68   -93324.793    229.85153    20721    226715.42   -15.806311   -45.869445   -53.962844    52.413357    435.36593    23.502308    22.157262     0.354636    435.72056   -13.295927   -1565.0886 
    6100   -102769.46   -93318.262    229.54331    20721    226823.34    51.986595   -183.88879   -17.703373    357.55195    435.34966    23.508341    22.162949   0.36276975    435.71243   -16.913944   -1569.6415 
    6200   -102751.94   -93270.329    230.28182    20721    226712.48 -0.091555368    272.33545    34.652032   -307.26215    435.54263    23.497388    22.152623   0.26628664    435.80891   -24.565765    -1612.968 
    6300   -102709.85   -93237.179    230.06469    20721    226747.31    59.682829   -46.609393    227.10953   -1.4516533    435.51617    23.499907    22.154998   0.27951575    435.79568   -20.620269   -1651.0014 
    6400   -102651.22   -93206.706    229.38101    20721    226684.83   -44.066539   -186.10913   -107.91524    161.82475    435.49229    23.497313    22.152553   0.29145664    435.78374   -17.536369   -1682.5224 
    6500   -102733.16   -93236.505    230.64719    20721    226615.18   -5.3240003    4.7018039    79.603255   -100.27706    435.39639    23.496291    22.151588   0.33940375     435.7358   0.63101822   -1677.1467 
    6600   -102775.85    -93272.39    230.81248    20721    226531.59    61.275317    87.834281    236.56481   -140.57314    435.36231    23.492876    22.148369   0.35644479    435.71876    2.8552096   -1650.8926 
    6700   -102757.13   -93195.342    232.22913    20721    226637.48   -29.422382   -52.351256   -107.09071    71.174822    435.34582    23.498811    22.153965   0.36468831    435.71051   -13.154256   -1704.2447 
    6800   -102808.45   -93259.731    231.91175    20721    226580.77    2.3444923    96.883607   -133.39133    43.541196     435.4716    23.492478    22.147994   0.30179893     435.7734   -7.9973014   -1649.3673 
    6900   -102745.57   -93221.621    231.31019    20721    226736.96   -5.6327907   -84.199685     244.2298   -176.92849    435.37766    23.503108    22.158016   0.34876959    435.72643   -17.910698   -1674.4932 
    7000   -102826.78   -93233.676    232.98986    20721    226826.83    33.766212    186.24451    105.35478   -190.30066    435.55186    23.503064    22.157975   0.26167113    435.81353   -26.525101   -1654.6818 
    7100    -102833.8    -93225.61    233.35608    20721    226604.01   -57.817395   -142.06041   -27.532609   -3.8591653    435.19997    23.501013    22.156041   0.43761387    435.63759   -25.521343    -1665.987 
    7200   -102823.24   -93219.866    233.23906    20721    226830.47   -33.945797   -83.268296    122.41474   -140.98383    435.50796    23.504437    22.159269   0.28362158    435.79158   -29.580809   -1663.4798 
    7300   -102816.97   -93197.194    233.63753    20721    226810.47    28.126836    3.5266461   -79.165986    160.01985    435.46256    23.504626    22.159447    0.3063219    435.76888   -37.074309   -1684.6072 
    7400   -102650.66   -93198.278    229.57211    20721    226686.59   -21.245686    36.457772   -48.014203   -52.180626    435.11252    23.507657    22.162304   0.48133887    435.59386   -26.836444   -1693.2547 
    7500   -102675.78   -93144.188    231.49588    20721    226856.21    67.469203   -56.602425    51.588558    207.42148    435.38787    23.509013    22.163582   0.34366489    435.73154   -54.065364   -1722.9509 
    7600   -102667.19   -93132.551    231.56983    20721    226689.33    45.849791    128.78284   -115.06136     123.8279    435.31461    23.502342    22.157293   0.38029401    435.69491   -44.930403   -1748.5338 
    7700    -102545.2   -93066.567    230.20964    20721     226934.5   -1.8124605   0.29629612    1.4307438   -7.1644214    435.26822      23.5163    22.170453   0.40349103    435.67171   -56.969556   -1792.8805 
    7800   -102676.46   -93061.278    233.52608    20721     226849.5     52.16886    57.573757   -28.225167    127.15799     435.2911    23.511278    22.165718   0.39204796    435.68315   -43.359762   -1819.6452 
    7900   -102623.59   -93070.937    232.00724    20721    226817.43    -73.39375   -62.542408    -120.8193   -36.819541    435.36983     23.50749    22.162147   0.35268414    435.72252   -57.746691   -1790.6251 
    8000   -102644.59   -93060.416    232.77279    20721    226785.07   0.62618149    -36.10126   -47.399047    85.378852     435.3141    23.507318    22.161985    0.3805505    435.69465   -58.623366    -1805.665 
    8100   -102636.94   -93063.014    232.52393    20721    226872.77    25.558498   -89.860591   -103.50982     270.0459    435.50241    23.506779    22.161477   0.28639647     435.7888   -29.040907   -1832.7053 
    8200    -102676.2   -93085.461    232.93226    20721    226828.61   -42.070643   -44.067206   -212.96245    130.81773    435.29617    23.510058    22.164568   0.38951619    435.68568   -48.283731   -1790.8241 
    8300   -102572.82   -93053.155    231.20626    20721     226794.9    112.56403    149.89826    203.34258   -15.548746    435.27689    23.508832    22.163412    0.3991542    435.67605    -50.67574   -1828.5548 
    8400    -102649.9   -93045.029    233.27555    20721     226878.9   -43.199804   -189.31139   -7.2410582    66.953032     435.3584    23.510984    22.165441   0.35840066     435.7168     -56.2363   -1822.4895 
    8500   -102732.86   -93000.399     236.3744    20721    226886.06   -48.790766   -37.143647    35.573843   -144.80249    435.54723    23.506258    22.160986   0.26398746    435.81121   -60.176732   -1864.4459 
    8600   -102694.95    -92982.08    235.89846    20721    226925.76    -42.67008   -141.66369     64.63364    -50.98019    435.49575    23.509704    22.164234   0.28972748    435.78547   -53.143359   -1889.5768 
    8700   -102550.24   -93003.586    231.86153    20721    226917.57    53.949921   -23.469497    194.22002   -8.9007651    435.37442    23.512555    22.166922    0.3503907    435.72481   -48.971494   -1877.9292 
    8800   -102573.68   -93001.591     232.4793    20721    226846.27    21.282059   -28.616197    104.68081   -12.218434    435.34254    23.509721    22.164251   0.36633209    435.70887   -41.517918   -1887.5777 
    8900   -102558.25   -92957.029    233.18702    20721    226836.67    84.196122   -3.6176312     121.4652     134.7408    435.36247    23.508686    22.163275   0.35636505    435.71883    -51.11923   -1926.4393 
    9000   -102550.21   -92938.931    233.43116    20721     226822.5   -2.6744874    120.49391    133.23739   -261.75476    435.58506    23.501944    22.156919   0.24506804    435.83013   -46.595876   -1946.6504 
    9100   -102569.82   -92884.114    235.23885    20721    226725.53     28.36772   -34.040661   -184.12299    303.26681    435.39632    23.502012    22.156983   0.33943955    435.73576   -65.985846   -1987.4458 
    9200   -102597.03   -92915.251    235.14335    20721    226625.22   -31.028433   -216.02828    -202.8569    325.79988     435.4869    23.494369    22.149777   0.29415055    435.78105   -52.649162   -1971.2295 
    9300   -102519.75   -92903.008    233.56381    20721    226662.07    3.0566493   -61.561414     78.65863   -7.9272682     435.2163    23.503583    22.158463   0.42945094    435.64575   -68.189759   -1968.6205 
    9400   -102490.68   -92878.173    233.46114    20721    226661.84   -54.607906   -27.349095    193.68243   -330.15706    435.31653    23.500865    22.155901   0.37933349    435.69587   -52.859022   -2005.9897 
    9500   -102529.35   -92894.191    234.01126    20721    226585.79    4.5674722    148.53428    53.591859   -188.42372    435.31674    23.496916    22.152178   0.37922756    435.69597   -46.510569   -2004.9079 
    9600   -102479.31   -92845.067    233.98888    20721     226668.8    21.482691   -131.17875    249.91372   -54.286901    435.30238    23.501608    22.156601   0.38641217    435.68879   -65.053809   -2032.9677 
    9700   -102417.07   -92808.827    233.35737    20721    226751.31    153.47828    101.41022   -71.487636    430.51225    435.02641    23.513339    22.167661   0.52439347    435.55081   -60.861542   -2079.6558 
    9800   -102434.96   -92766.828    234.81196    20721     226840.1    53.073581     21.47902    222.23982   -84.498093    435.09051     23.51621    22.170368   0.49234489    435.58286   -67.404063   -2108.1437 
    9900   -102477.54   -92771.577    235.73069    20721    226819.99   -53.010888   -19.934898   -104.31781   -34.779958    435.36919     23.50764    22.162288   0.35300688    435.72219   -52.682138   -2115.3672 
   10000   -102439.08   -92789.816    234.35384    20721    226820.76   -12.259359   -24.499539    70.779215   -83.057752    435.39567    23.506965    22.161652   0.33976427    435.73544   -61.779389    -2091.446 
   10100   -102493.19   -92759.738    236.39847    20721     226772.6   -67.621842    34.018062   -45.995311   -190.88828    435.22508    23.509075    22.163641   0.42506103    435.65014   -66.200576   -2116.7233 
   10200   -102409.59   -92739.194    234.86701    20721    226850.52    -29.32885   -167.75954   -155.81159    235.58458    435.16625    23.514703    22.168947   0.45447476    435.62073    -64.61522   -2137.6244 
   10300   -102462.16   -92786.541    234.99394    20721    226860.87    -10.12902    6.4861319   -220.40284    183.52965    435.30041    23.511616    22.166036   0.38739358    435.68781   -65.585123   -2093.6065 
   10400   -102477.86   -92773.531    235.69113    20721    226800.22   -4.3722824    59.124132   -126.70244    54.461463    435.12987    23.513079    22.167416   0.47266701    435.60253   -85.023192   -2089.4236 
   10500   -102519.33   -92737.542    237.57238    20721    226818.07    14.270364   -21.853976   -180.68268    245.34775    435.35459    23.507934    22.162566   0.36030277     435.7149   -79.422796   -2133.6983 
   10600   -102471.61   -92748.239    236.15351    20721    226604.79   -29.756315    54.956942    99.510216    -243.7361    434.98617    23.506828    22.161523    0.5445157    435.53068   -83.982942    -2122.614 
   10700   -102489.98   -92759.599     236.3238    20721     226826.1    40.759759    106.07856     272.1871   -255.98638    435.22015    23.511981    22.166381   0.42752447    435.64768   -74.861041   -2121.0516 
   10800   -102453.94   -92719.322    236.42666    20721    226681.16    2.5979142   -6.1291802    143.05095   -129.12802    435.33449    23.501381    22.156388   0.37035486    435.70485   -78.402072   -2158.3605 
   10900   -102439.91   -92643.922    237.91735    20721       226768    -31.41719   -5.5814906   -212.84556    124.17548    435.42691    23.503388     22.15828   0.32414351    435.75106    -92.71052   -2215.4618 
   11000   -102445.13   -92679.794    237.17291    20721    226682.96   -14.922878   -153.42299   -76.956301    185.61065    435.04042    23.509417    22.163963   0.51738942    435.55781    -87.79635   -2190.3722 
   11100   -102371.21   -92657.153    235.92727    20721    226693.01   -79.753518   -158.19987    20.251898   -101.31258     435.0501    23.509676    22.164208   0.51255229    435.56265   -91.740699   -2204.2723 
   11200   -102410.41   -92690.779    236.06267    20721       226675    23.473812    33.692848    66.914838    -30.18625    435.27722    23.502608    22.157545   0.39899213    435.67621   -82.155424   -2188.2967 
   11300   -102410.69   -92645.724    237.16372    20721    226866.19   -6.4861971    125.18889    -160.9465    16.299022    435.29436    23.512054     22.16645   0.39041785    435.68478   -104.90506   -2204.0707 
   11400    -102402.8   -92671.462    236.34703    20721    226723.01   -23.031108   -100.39215   -33.160634     64.45946    435.30668    23.504302    22.159141   0.38426072    435.69094   -83.151086   -2204.9689 
   11500   -102369.36   -92666.005    235.66745    20721    226661.39    44.152137    100.02379   -130.89851    163.33113    435.27545     23.50195    22.156924   0.39987372    435.67533   -85.901038   -2212.3004 
   11600   -102397.33   -92643.297    236.89824    20721    226540.74    5.4029433   -53.738088   -34.318208    104.26513    435.16122    23.498778    22.153934   0.45699107    435.61821   -93.211828   -2229.7201 
   11700   -102409.86   -92652.876    236.97001    20721     226653.3   -12.484902   -240.17304     227.4726   -24.754271    435.27281    23.501602    22.156596   0.40119302    435.67401   -106.88861   -2204.0472 
   11800   -102344.32   -92649.546    235.45895    20721    226522.01    42.798027   -22.713607   -73.538523    224.64621    435.06159    23.500497    22.155554   0.50680632    435.56839   -105.24258   -2215.7556 
   11900   -102421.24   -92566.897    239.33459    20721    226626.15   -6.5040585   -133.50976   -264.20643    378.20402    435.09801    23.504915    22.159719   0.48859745     435.5866   -120.83237   -2278.8856 
   12000   -102385.22   -92538.315    239.15399    20721    226673.29   -73.532675    -215.7311   -145.44757    140.58064    435.08215    23.507787    22.162427   0.49652315    435.57868   -113.18941   -2314.1013 
   12100   -102276.26   -92502.938    237.36673    20721    226708.63    23.556989    201.33713   -20.552281   -110.11388     435.2362    23.505459    22.160232   0.41950207     435.6557   -114.13644   -2351.4347 
   12200   -102291.98   -92481.795    238.26194    20721    226710.92    15.352365   -41.289661    154.28258   -66.935827      435.047    23.510688    22.165162   0.51410246     435.5611    -108.9571   -2376.3173 
   12300   -102204.66   -92484.335    236.07969    20721    226682.44    101.50789    60.801846    51.999889    191.72192    435.05355    23.509035    22.163603   0.51082706    435.56437   -136.44777   -2351.3083 
   12400   -102247.03   -92499.432     236.7419    20721    226699.78    27.636177    63.251085    185.33157   -165.67413    435.17923    23.506538     22.16125   0.44798332    435.62722   -126.52316   -2343.5065 
   12500   -102222.85   -92435.702    237.70259    20721    226742.25    9.5353816   -6.1756133   -22.590285    57.372044    435.40426    23.502665    22.157598   0.33547211    435.73973    -127.8404   -2406.3438 
   12600   -102232.41   -92472.132    237.04986    20721    226686.71    35.671067   -30.562731    40.222213     97.35372    435.26587    23.503521    22.158405   0.40466499    435.67054    -127.3283   -2374.6082 
   12700   -102203.12   -92411.548    237.80995    20721    226860.71      11.2541    100.41448    30.469959   -97.122136    435.44553    23.507689    22.162335   0.31483469    435.76037   -122.18049   -2436.4143 
   12800   -102247.32   -92426.815    238.51279    20721    226567.21    35.484862    132.48712    82.308825   -108.34136    435.16354    23.500088    22.155169   0.45583028    435.61937   -101.65351   -2451.4265 
   12900   -102264.51   -92460.298    238.11698    20721    226615.94    61.818587   -29.656565    23.753465    191.35886     435.2961    23.499036    22.154177   0.38954755    435.68565   -123.92768   -2397.4332 
   13000   -102240.65   -92450.976    237.76386    20721    226656.13    13.246398    96.150317    47.822404   -104.23353    435.31128     23.50071    22.155755   0.38196049    435.69324   -114.44687   -2414.6834 
   13100   -102171.13   -92372.608     237.9787    20721    226735.77    57.432197    106.45656   -47.219755    113.05978      435.396    23.502551    22.157491   0.33959857     435.7356   -105.91319   -2502.6264 
   13200   -102200.83   -92367.213    238.83113    20721    226730.43    33.788693   -43.705024   -85.597829    230.66893    435.21945    23.507041    22.161724   0.42787324    435.64733   -104.40373   -2507.0961 
   13300   -102124.41   -92379.628    236.67348    20721    226402.24     -35.6506   -281.55519   -6.0301761    180.63356    434.91541    23.498231    22.153418   0.57989357    435.49531   -80.236831   -2527.2777 
   13400   -102285.74   -92382.205    240.52919    20721    226678.12   -25.686436   -75.519219   -253.43927    251.89918    434.95544    23.511462    22.165892   0.55988113    435.51532   -94.810956   -2505.3278 
   13500   -102215.26   -92340.745    239.82447    20721    226580.66   -44.285401   -100.29292   -178.75666    146.19337    434.94771    23.506615    22.161322   0.56374283    435.51146   -94.842673   -2549.6965 
   13600   -102123.46   -92287.019    238.89977    20721    226511.75   -8.0216498    80.264365    -38.82495   -65.504365    434.93408     23.50341      22.1583   0.57056241    435.50464   -96.050447   -2605.1162 
   13700    -102164.7   -92261.774    240.51437    20721    226514.71   -42.803906    -240.0131    189.55512   -77.953732    435.06647    23.499986    22.155073   0.50436371    435.57084   -124.12061   -2601.5563 
   13800   -102084.23   -92196.328    240.14965    20721    226454.38    10.656316   -18.771867    121.18525   -70.444438    434.81009    23.503783    22.158652   0.63255621    435.44264   -129.51421   -2668.8173 
   13900    -102016.7   -92166.685    239.22935    20721       226612    55.209384    90.939852   -241.95865    316.64695    435.04006    23.505746    22.160503   0.51756795    435.55763   -149.81223   -2675.1855 
   14000   -101995.83   -92138.601    239.40468    20721    226591.72    4.3701493   -74.409336    50.236366    37.283418    435.13476    23.502137      22.1571   0.47022131    435.60498   -142.57515   -2709.4241 
   14100   -102024.09   -92161.576    239.53286    20721    226835.11    -78.77231   -3.2523456   -30.039385    -203.0252    435.52165    23.504308    22.159148   0.27677324    435.79843   -130.20157   -2689.2641 
   14200   -102075.32   -92196.505    239.92893    20721    226520.76   -35.982751    -37.97599   -163.83241    93.860146    435.17819    23.497284    22.152525   0.44850399     435.6267   -113.13409   -2683.7653 
   14300   -102152.84    -92220.01    241.24085    20721    226716.27    5.9012165   -10.383113   -124.08182    152.16859    435.30684    23.503948    22.158807   0.38418213    435.69102   -117.59799   -2655.2567 
   14400   -102082.57   -92171.959    240.70122    20721    226855.13    63.989637    92.330684    162.78251   -63.144285    435.53957    23.504862     22.15967   0.26781377    435.80739   -112.23119   -2708.0275 
   14500    -102009.9   -92139.865    239.71562    20721     226691.3    43.004156    86.912573    239.33492   -197.23503    435.45721    23.498595    22.153761   0.30899603     435.7662   -133.08437   -2722.0289 
   14600   -101997.89   -92136.363    239.50892    20721    226624.86    32.836721     40.87713     72.56162   -14.928586     435.3095    23.499137    22.154272   0.38285146    435.69235   -116.83122   -2745.7193 
   14700   -102123.23   -92186.241    241.34182    20721    226725.23    -38.95491    155.89014   -262.47169    -10.28318    435.47495    23.499875    22.154968    0.3001255    435.77507   -98.927218   -2707.5992 
   14800   -102006.16   -92156.018    239.23257    20721     226643.5   -12.068021   -132.87866   -4.2634486    100.93804    435.14723    23.504485    22.159314   0.46398508    435.61121   -100.91804   -2740.3636 
   14900   -102056.41    -92162.35    240.29925    20721    226675.36 -0.0084095731    52.948532    105.40648   -158.38025    435.13256    23.506533    22.161245   0.47132159    435.60388   -92.521393   -2744.1306 
   15000   -102054.45   -92152.808    240.48326    20721    226624.06   -15.953769   -5.7770717   -24.404486    -17.67975    435.47093     23.49474    22.150127   0.30213642    435.77306   -101.23769   -2744.8732 
   15100      -102034   -92153.946    239.95888    20721    226728.69   -128.04139   -234.73775   -226.41304    77.026626    435.34497    23.503562    22.158444   0.36511651    435.71008   -103.13228   -2736.8795 
   15200   -101927.04   -92116.417    238.27279    20721    226687.95    9.2176604    22.549066    60.627987   -55.524072    435.38741    23.500305    22.155373   0.34389429    435.73131    -116.3331   -2767.2529 
   15300   -101972.75   -92072.816    240.44192    20721    226867.85   -13.124678   -137.23431     31.56371    66.296561    435.37968    23.509837     22.16436   0.34776111    435.72744   -130.59332   -2792.9783 
   15400   -101976.38   -92092.977     240.0403    20721     226736.2   -30.346244    158.50129   -109.29805   -140.24198    435.32956    23.504367    22.159203   0.37281846    435.70238   -114.63504   -2794.2122 
   15500   -101927.13   -92122.327    238.13128    20721    226710.43   -16.942625    34.674759   -128.43724    42.934607    435.30402    23.503721    22.158594   0.38558992    435.68961    -103.5921   -2776.8248 
   15600   -102002.75   -92078.402    241.03468    20721    226930.94   -30.487356   -99.923538    88.925816   -80.464346    435.57609    23.507804    22.162443   0.24955515    435.82564   -109.19772   -2810.8937 
   15700   -101973.19   -92053.166    240.92981    20721    226746.39    2.3974369    240.41212   -188.78975   -44.430058    435.32896    23.504912    22.159716   0.37311781    435.70208   -132.19483   -2820.2178 
   15800   -102036.26   -92070.774    242.03385    20721    226770.18    92.792948   -176.31278    76.189633    378.50199    435.36372    23.505206    22.159994   0.35573892    435.71946   -112.86253   -2828.3843 
   15900   -101973.54   -92010.775    241.96787    20721    226642.61  -0.60076457     228.4217   -52.662604   -177.56139    435.12137    23.505137    22.159929    0.4769171    435.59828   -120.29574   -2881.2342 
   16000    -101880.8   -92048.211    238.80619    20721    226702.94    51.553832    77.760713    78.048115   -1.1473305    435.10086     23.50882    22.163401   0.48717035    435.58803   -88.058616   -2878.1402 
   16100   -101988.51   -92036.961     241.6953    20721    226828.61   -27.443727    35.719265   -181.98974    63.939293    435.13785    23.514335      22.1686   0.46867719    435.60652   -93.987239   -2875.3646 
   16200   -101913.73   -92031.517    240.01146    20721    226386.13   -4.1198165   -12.283968   -80.747313    80.671831    434.92018    23.497267    22.152509    0.5775096    435.49769   -106.49362   -2884.2535 
   16300   -101889.76    -92042.83    239.15443    20721    226654.56   -26.325013    38.311217    110.00992   -227.29617     435.0247    23.508368    22.162975   0.52524981    435.54995   -85.623508   -2885.4754 
   16400   -101991.31   -92019.876    242.17824    20721    226602.32    80.864025    106.53504    83.048766    53.008272    434.94407    23.507837    22.162475   0.56556267    435.50964    -93.83517   -2908.7866 
   16500   -101869.28   -91982.905    240.11248    20721     226496.7   -135.53436   -4.1462561   -11.481504   -390.97531    434.89692    23.503633    22.158511   0.58914152    435.48606   -108.75245   -2924.0806 
   16600   -101884.59   -91970.288    240.79065    20721    226609.46    6.6419742   -26.755699   -209.74042    256.42205    434.95789    23.507835    22.162472   0.55865453    435.51655   -127.60925   -2921.6094 
   16700   -101968.87   -91983.409    242.51912    20721    226560.25   -77.113763    103.18765   -324.11283   -10.416102    434.98156    23.504642    22.159462   0.54682067    435.52838   -105.16134   -2931.7427 
   16800   -101862.85   -91949.247    240.77389    20721    226593.92    24.299219   -87.852307    282.06923   -121.31926    434.84652    23.510038     22.16455   0.61433935    435.46086   -120.99348   -2952.7261 
   16900   -101841.36     -91899.2    241.46727    20721    226464.03   -134.62995   -157.47656   -224.91222   -21.501062    434.70235    23.507196     22.16187    0.6864228    435.38878   -126.13905   -2994.7948 
   17000   -101801.36   -91919.798    239.99549    20721    226410.52    81.461414    57.172887   -164.40994    351.62129    434.51946    23.509365    22.163915   0.77786959    435.29733   -126.10144   -2986.5548 
   17100   -101814.83   -91865.549    241.64025    20721    226458.78    27.736116    62.533728    111.92347   -91.248854    434.54712    23.511122    22.165571   0.76403763    435.31116   -115.92994   -3049.2969 
   17200   -101845.49   -91894.798    241.67447    20721     226393.4   -22.296776   -33.981482   -8.8186387   -24.090206    434.36259    23.512721    22.167078   0.85630391     435.2189   -106.56103   -3029.3973 
   17300   -101716.89   -91846.437     239.7259    20721    226450.04    43.367705   -19.892124    16.316779    133.67846    434.65626    23.507717    22.162361   0.70947248    435.36573   -129.69194   -3054.4591 
   17400   -101851.82   -91823.617    243.55722    20721    226273.83   -77.588072   -64.810242   -130.89461   -37.059366    434.85571    23.493179    22.148655   0.60974266    435.46546   -116.05665   -3095.9233 
   17500   -101743.19   -91795.797    241.59458    20721    226456.14    56.239231    -33.90788    116.60855    86.017019    434.68216    23.507333    22.161999   0.69651832    435.37868   -138.61291   -3100.4405 
   17600   -101730.46   -91794.353    241.32034    20721    226131.88   -2.7117934    133.79309    331.32225   -473.25072    434.57114    23.493497    22.148955   0.75202782    435.32317    -130.3637   -3117.6896 
   17700   -101781.46   -91813.283    242.09928    20721    226368.76    54.802408    157.43211    55.777657   -48.802541    434.62481    23.504348    22.159184   0.72519638       435.35   -106.02195   -3123.7704 
   17800   -101689.31   -91787.363    240.49081    20721    226164.94    58.122068    68.094853    142.91987   -36.648517    434.43911    23.498784     22.15394   0.81804472    435.25716   -112.27531   -3147.5968 
   17900   -101822.23   -91762.166    244.33087    20721    226254.33    9.1858991   -4.1082322   -86.665822    118.33175    434.48205    23.502267    22.157222   0.79657746    435.27862   -116.03501   -3166.6566 
   18000   -101642.63    -91756.31    240.11127    20721    226212.55    47.912213    134.55169    23.779238   -14.594285    434.38751    23.502654    22.157587   0.84384479    435.23136   -125.90732   -3162.6803 
   18100   -101758.63   -91738.171    243.36909    20721     226252.6   -63.240978    -93.73224    99.766676   -195.75737    434.43406    23.503475    22.158362   0.82057134    435.25463   -134.13187   -3170.0326 
   18200   -101695.05   -91749.445    241.55113    20721    226227.17     42.37784    44.748836   -10.034962    92.419647    434.54774    23.499079    22.154217   0.76372826    435.31147   -157.10187   -3143.3242 
   18300   -101667.76   -91721.476    241.56757    20721    226244.46    72.985603    129.85463    215.52942   -126.42724    434.30057    23.506664    22.161368   0.88731576    435.18788   -156.37313   -3174.3039 
   18400   -101734.52   -91695.702    243.81499    20721    226261.41   -38.374766   -95.416944   -12.192487   -7.5148663    434.43072    23.504023    22.158878   0.82224102    435.25296   -148.83117   -3202.4339 
   18500   -101665.34   -91694.533    242.16314    20721    226422.57    32.248109    35.001012   -300.91421    362.65752    434.64544    23.506584    22.161292   0.71488236    435.36032   -156.73648   -3194.7988 
   18600   -101690.93   -91666.682    243.46109    20721     226398.9   -77.612625    -101.4015     -106.564   -24.872368    434.35699    23.513158    22.167491   0.85910718    435.21609   -157.90877   -3217.4653 
   18700   -101671.07   -91649.231    243.40255    20721    226420.57   -6.4230783    95.495635    265.10501   -379.86988    434.45189    23.511715     22.16613   0.81165735    435.26354    -157.7676   -3241.3332 
   18800   -101658.69   -91625.674    243.67402    20721    226350.46   -65.795106   -6.1015012    58.181531   -249.46535    434.47969    23.507323    22.161989   0.79775681    435.27744   -156.22035   -3262.7004 
   18900   -101746.85   -91647.876    245.27585    20721     226383.6    83.293226   -60.061182    303.74921    6.1916477    434.24282    23.515454    22.169656   0.91619089    435.15901   -141.27916   -3265.4448 
   19000   -101642.38   -91589.523    244.15595    20721    226162.47   -94.542461   -20.970884   -301.46988    38.813383    434.25366    23.503673    22.158549   0.91076784    435.16443   -169.55106   -3293.9547 
   19100   -101727.27   -91642.947    244.92009    20721    226411.14   -61.835884   -8.3178031   -40.265423   -136.92443      434.501    23.509896    22.164416   0.78709931     435.2881   -143.40915   -3263.2616 
   19200    -101575.5   -91594.985    242.39901    20721    226284.37     73.71327   -20.701943    160.74425    81.097504    434.12248    23.513558    22.167868   0.97635956    435.09884   -150.22371   -3314.0632 
   19300   -101685.06   -91638.578      244.001    20721     226293.6    -53.59721   -78.498809    31.820688   -114.11351    434.16833    23.512796     22.16715   0.95343291    435.12177   -151.74536   -3263.8756 
   19400   -101603.64   -91609.191    242.73736    20721    226226.83   -58.700314    16.033118    4.9111466   -197.04521     434.1053    23.511034    22.165488   0.98495113    435.09025   -171.80356   -3278.2525 
   19500   -101640.02   -91614.189    243.49944    20721    226358.72    35.701442    25.079305   -89.190024    171.21505    434.19743    23.515391    22.169596   0.93888461    435.13632   -160.59385   -3284.5463 
   19600   -101597.83   -91612.392    242.51853    20721    226214.79   -53.521855    63.768379   -160.84619   -63.487752    434.04615     23.51201    22.166408    1.0145235    435.06068   -147.00778   -3301.2383 
   19700   -101566.58   -91544.167    243.41645    20721    226193.69     44.46874   -6.2070934    128.98838    10.624932    433.84155    23.516457    22.170601    1.1168266    434.95837   -166.81675   -3355.1927 
   19800   -101618.32   -91595.441    243.42778    20721    225949.18   -27.326548    29.234597    25.063288   -136.27753     433.9515    23.500765    22.155807     1.061848    435.01335   -160.80273   -3313.2288 
   19900    -101565.2   -91622.604    241.47803    20721    226245.82    65.911443    189.60097    -6.192586    14.325942    434.16431    23.510423    22.164912   0.95544666    435.11975   -133.87587   -3310.8869 
   20000   -101555.58   -91556.767    242.84324    20721    226064.07     15.94125    133.02773   -7.9466507   -77.257328    433.92206    23.507537    22.162191    1.0765691    434.99863   -148.43375   -3365.6162 
   20100   -101629.32   -91564.791    244.43941    20721    226046.31    7.0936941    89.852824    96.460503   -165.03224    433.91327    23.506851    22.161545    1.0809661    434.99423   -144.13093   -3364.3513 
   20200   -101539.12   -91567.618    242.18006    20721    225945.58    7.8134764   -15.181276    18.745322    19.876383    433.75945     23.50578    22.160535    1.1578742    434.91733   -143.19099   -3364.3689 
   20300   -101475.05   -91542.209    241.24105    20721    226061.92    25.645998    59.888215   -102.47001    119.51978    434.02134    23.504736    22.159551    1.0269294    435.04827   -165.02776   -3366.9769 
   20400   -101676.36   -91594.295    244.86524    20721    225965.05    9.3911443   -28.215653   -125.22663    181.61571    433.96427    23.501245    22.156259    1.0554638    435.01974   -154.67969   -3330.6509 
   20500   -101533.46   -91577.688    241.79799    20721    226041.35    40.238228    -13.56526   -151.79142    286.07136    434.00449    23.504123    22.158973    1.0353563    435.03984   -151.28344   -3349.5496 
   20600   -101612.61   -91564.816    244.03295    20721    226149.84   -45.863974   -382.10617    78.203037    166.31121    433.79087    23.515551    22.169746    1.1421651    434.93303   -162.13993   -3345.7747 
   20700   -101507.05   -91514.412    242.69337    20721    226190.77   -17.270331    -9.990981   -70.873428    29.053417    433.97246    23.512758    22.167113    1.0513683    435.02383   -141.14695   -3418.7827 
   20800   -101567.78   -91485.368    244.87377    20721    226140.75    13.328609   -4.2308974    2.6820323    41.534691    433.88872    23.512426    22.166801     1.093238    434.98196   -138.47674   -3455.2202 
   20900   -101392.33    -91437.17    241.78307    20721    226067.72    13.855619   -155.42844   -287.18559    484.18088    433.83421    23.510106    22.164614    1.1204939    434.95471   -137.85311   -3504.8635 
   21000    -101509.5   -91484.618    243.47642    20721    226091.07    -15.83859   -88.751276    117.82007   -76.584564    433.76774    23.513122    22.167457    1.1537297    434.92147   -127.87473   -3467.8943 
   21100   -101510.39   -91467.169    243.92185    20721     226078.6   -24.358553   -88.929209    10.725435    5.1281142    433.60453    23.516898    22.171016    1.2353346    434.83987   -132.38556   -3482.0242 
   21200   -101465.42   -91454.255    243.14324    20721    226160.17   -16.104511   -77.322317    58.307496   -29.298711    433.90184    23.513081    22.167418    1.0866806    434.98852   -143.44154   -3481.7767 
   21300   -101495.54   -91446.676    244.05889    20721    226244.11    24.653183    32.199846   -142.87822    184.63793    434.04898    23.513457    22.167772    1.0131096    435.06209   -149.08622   -3487.3138 
   21400   -101446.31    -91421.51    243.47436    20721    226202.26    -20.08307     162.0595    25.996853   -248.30557    434.00479    23.512479     22.16685    1.0352051    435.03999   -146.96219   -3512.9727 
   21500   -101497.23   -91411.084    244.96437    20721    226389.41    35.438895    35.769637    266.17244    -195.6254    434.24284    23.515756     22.16994   0.91618025    435.15902   -169.31927   -3500.3654 
   21600   -101283.76   -91302.255    242.42288    20721    226471.62    89.187725    116.47234   -9.5177409    160.60858    434.25443    23.519711    22.173668   0.91038499    435.16482   -198.87489   -3576.6482 
   21700   -101435.79   -91401.963     243.6938    20721    226401.45    66.617207   -107.72472    133.87861    173.69774    434.11377    23.519877    22.173825   0.98071646    435.09448   -156.62584   -3522.5419 
   21800   -101490.72   -91413.026    244.75901    20721    226562.87    35.395756    36.432882     66.41922    3.3351653    434.38128    23.521014    22.174897   0.84696069    435.22824   -175.08368   -3489.8534 
   21900   -101437.62   -91355.584    244.86448    20721    226455.79   -10.302387    92.345224   -204.97489    81.722499    434.49087    23.512489    22.166859   0.79216567    435.28303   -188.41802   -3532.5795 
   22000   -101403.15   -91418.731    242.49376    20721    226369.12    14.022869    1.4478174    81.301055   -40.680265    434.58898    23.505335    22.160115   0.74310978    435.33209   -165.85404   -3497.5371 
   22100   -101503.52   -91413.107    245.06814    20721    226318.83   -70.430921   -168.05518      155.779   -199.01659    434.35998    23.508919    22.163494   0.85761159    435.21759   -175.03325   -3492.8676 
   22200    -101539.3   -91424.499    245.66024    20721    226252.44    -96.91842   -25.075086   -223.18313   -42.497045      434.054    23.513754    22.168052    1.0105987     435.0646   -167.80306   -3492.3943 
   22300   -101417.19   -91370.817    243.99849    20721    226338.57    44.919287    125.85391   -49.108733     58.01268    434.08661    23.517346    22.171439   0.99429586     435.0809   -186.28351   -3529.8656 
   22400   -101534.77   -91391.065    246.36231    20721    226158.59   -11.960715    -36.23616    52.230512   -51.876498    434.15407    23.506167      22.1609   0.96056282    435.11464   -165.09764   -3536.9504 
   22500    -101522.4   -91381.511    246.29384    20721    226240.78   -22.650651   -19.217657    41.450003     -90.1843    434.29633    23.506587    22.161296   0.88943585    435.18576   -159.38196   -3552.2863 
   22600   -101447.92   -91387.463    244.34047    20721    226312.85     36.17942   -81.938271   -79.796181    270.27271     434.2637    23.511214    22.165658   0.90574871    435.16945   -189.59914   -3515.6799 
   22700   -101333.79   -91308.928    243.47607    20721    226143.01   -15.205675   -6.0778605    -3.386407   -36.152757    434.28815    23.501729    22.156715   0.89352261    435.18168   -197.89309   -3586.8463 
   22800   -101431.37   -91301.787    246.01938    20721    226359.67   -47.192822   -312.19934    62.152397    108.46847     434.2025    23.515303    22.169513   0.93635168    435.13885   -195.87739   -3590.7703 
   22900   -101454.27   -91292.438    246.80266    20721    226208.59    32.918875    42.034909    126.74438   -70.022668    434.27229    23.505566    22.160333   0.90145467    435.17375   -203.01137   -3603.9569 
   23000    -101367.3   -91310.153    244.26018    20721    226253.66    27.187467   -54.569499    143.46371   -7.3318151    434.15796    23.511002    22.165458     0.958618    435.11658   -184.02431   -3602.2951 
   23100   -101385.75   -91278.674    245.47271    20721    226349.82   -3.6438788   -91.975871     205.7429   -124.69866    434.20647    23.514684    22.168929   0.93436395    435.14084   -208.81321   -3606.4303 
   23200   -101407.78   -91253.589    246.61692    20721    226035.36   -41.968483    90.436131   -301.95146    85.609883     433.8826    23.507113    22.161791    1.0963009     434.9789   -211.71328   -3638.2848 
   23300   -101481.15    -91208.84    249.48585    20721    226404.68   -93.101887   -85.867136    55.777788   -249.21631    434.10049    23.520404    22.174322   0.98735736    435.08784   -192.60108    -3689.795 
   23400   -101304.24   -91140.097    246.85876    20721     226218.5    43.689794    162.30262    50.429405   -81.662643    433.86754    23.517042    22.171152    1.1038321    434.97137   -220.08922      -3742.8 
   23500   -101374.18   -91189.557    247.35608    20721    226162.77   -55.040127    -94.36664    25.397697   -96.151438    433.89787    23.513323    22.167646    1.0886653    434.98653   -184.43093   -3728.9339 
   23600   -101278.49    -91190.72    245.00379    20721    226424.58    57.824693    66.791485    154.24865   -47.566056    434.29311    23.516221    22.170378   0.89104697    435.18415     -181.965   -3725.7611 
   23700    -101375.7   -91194.271    247.27849    20721    226223.95    10.934697    204.74421   -91.617664   -80.322452    433.92073    23.515884    22.170061    1.0772343    434.99797   -174.13059   -3738.8629 
   23800   -101357.21    -91167.62    247.47678    20721    226456.96   -23.554858   -52.897084    16.480483   -34.247972    434.11614    23.522695    22.176482   0.97953119    435.09567   -172.46271   -3758.9613 
   23900   -101254.82   -91181.808    244.64537    20721    226153.18    45.176886    285.54396   -101.58957   -48.423732    433.93148    23.511914    22.166318    1.0718601    435.00334   -154.15808   -3775.7136 
   24000   -101355.86   -91174.608    247.27411    20721    226021.56    1.8014668    105.23155   -298.22968    198.40253    433.65719    23.512503    22.166873    1.2090037     434.8662   -144.92935   -3795.0997 
   24100   -101338.61   -91194.029    246.38352    20721    226375.14   -15.171407   -42.397922   -67.963787    64.847488    434.32293    23.512846    22.167196   0.87613454    435.19907   -150.13237   -3760.2997 
   24200   -101288.55   -91133.797    246.63074    20721    226346.75   -12.513107   -118.62364    122.88454   -41.800215    434.45828    23.507709    22.162353   0.80846125    435.26674   -185.53974   -3787.2846 
   24300   -101326.57   -91156.692    246.99809    20721    226414.77    -6.989657   -118.57605   -134.09036    231.69744    434.22719    23.517496    22.171581   0.92400351     435.1512   -166.80311   -3784.5974 
   24400   -101258.71   -91069.376    247.47059    20721    226552.73    76.751535    237.83928    8.9752403   -16.559913    434.52297    23.516652    22.170785   0.77611389    435.29909   -172.49714   -3866.1052 
   24500   -101189.44   -91082.651     245.4657    20721     226368.5   -1.0714244   -160.31077   -4.0396559    161.13616      434.365    23.511363    22.165798   0.85510177     435.2201   -162.30641   -3865.1812 
   24600   -101285.46   -91126.047    246.74371    20721    226275.46   -57.330156   -68.984559   -125.93593    22.930026    434.25402    23.509534    22.164074   0.91059113    435.16461   -155.94784   -3830.1167 
   24700   -101290.82    -91135.16    246.65264    20721     226122.6   -2.2157751   -62.509837   -61.107304    116.96982    433.84641    23.512629    22.166992    1.1143948    434.96081   -148.02824   -3837.9444 
   24800   -101302.02   -91109.422    247.54988    20721     226228.8   -56.907349    -284.8541    4.6837217    109.44833    434.03664    23.512996    22.167337    1.0192789    435.05592   -155.06456   -3852.5788 
   24900   -101253.82    -91103.63    246.51976    20721    226171.89    48.840431   -145.79285    119.95052    172.36362    433.92924    23.512947    22.167292    1.0729776    435.00222   -147.27782   -3873.3739 
   25000   -101220.13   -91143.887    244.72389    20721    226107.33    53.960337    116.32203  -0.67737034    46.236347    433.95304    23.508947     22.16352    1.0610808    435.01412   -144.14668   -3839.3686 
   25100   -101247.97   -91067.658    247.25133    20721    226263.21     45.05817    209.31619   -364.85362    290.71194    434.03878    23.514726    22.168968    1.0182076    435.05699   -158.65826   -3898.6491 
   25200   -101288.26    -91090.06    247.68575    20721    226143.41    13.198048   -44.726884   -20.306615    104.62764    434.12629     23.50613    22.160865   0.97445301    435.10075   -174.49623   -3863.7258 
   25300    -101210.7       -91038    247.06655    20721    226262.76    53.489347    99.026875    257.12837   -195.68721    434.12133    23.512466    22.166839   0.97693413    435.09827   -168.41175   -3919.6394 
   25400   -101248.41   -91076.229    247.05398    20721    226127.19   -21.408259     4.904049    257.56431   -326.69314    433.95696    23.509873    22.164393    1.0591191    435.01608   -179.23004   -3871.5335 
   25500   -101279.13   -91053.652    248.34829    20721    226058.07   -84.093962   -13.557802   -306.20417    67.480085     433.7786    23.511112    22.165561    1.1483017     434.9269   -172.59473   -3901.4662 
   25600   -101208.05   -91054.536    246.60045    20721    225988.61   -15.778194   -110.70763   -107.09268    170.46573    434.04174    23.500372    22.155437    1.0167308    435.05847   -156.89197   -3922.6138 
   25700   -101169.49   -91018.132    246.54825    20721    226161.84    29.840606   -46.186324    178.63949   -42.931345    434.26829    23.503245    22.158145    0.9034551    435.17174   -169.63204     -3943.77 
   25800   -101219.77   -91012.808    247.89876    20721    226119.76    36.757944   -34.990278   -8.6479187    153.91203    434.16352    23.503893    22.158756   0.95584143    435.11936     -159.561   -3962.5388 
   25900   -101236.03    -91060.19    247.14287    20721    225973.68    3.0311274   -32.590336    -42.08419    83.767909    433.75713    23.507304    22.161972    1.1590346    434.91617   -153.86359   -3924.5691 
   26000   -101266.87   -91060.277    247.88962    20721    226088.53   -47.120335   -114.29072    110.65998   -137.73027    433.88718    23.509754    22.164281    1.0940121    434.98119   -156.00797   -3918.5622 
   26100   -101234.74   -91072.132    246.82148    20721    226131.87    21.967055     165.0001   -78.119419   -20.979515    434.07371    23.506954    22.161642    1.0007471    435.07445   -144.31733   -3920.6186 
   26200   -101242.29   -91021.066    248.24502    20721    226064.14   -55.825538   -201.53315   -112.92263    146.97917    433.92807    23.507377    22.162041    1.0735648    435.00164   -145.22827   -3970.8539 
   26300   -101156.94   -91019.865    246.20133    20721    225956.22    28.893058   -2.5612657    58.182595    31.057844    433.78615     23.50561    22.160374    1.1445235    434.93068   -153.11989   -3973.9977 
   26400   -101107.84   -90977.232    246.04424    20721    226068.14    32.057411     215.1765    102.61139   -221.61565    433.85116    23.509669    22.164201    1.1120219    434.96318   -156.19459   -4009.4432 
   26500   -101261.85   -90987.527    249.53467    20721    226116.77   -48.515616   -150.99826   -68.661334    74.112749    433.88507    23.511279    22.165719    1.0950658    434.98013   -153.31589   -4001.5561 
   26600   -101207.96   -90979.058    248.43153    20721    226092.16   -36.793255    31.731662   -316.60181    174.49038    433.92214    23.508995    22.163566    1.0765309    434.99867   -151.35744   -4011.2554 
   26700   -101205.08   -90983.187    248.26137    20721    226128.56    -40.74946   -40.203448     2.775493   -84.820426    434.04862    23.507461     22.16212    1.0132878    435.06191   -141.74679   -4016.5435 
   26800   -101139.28   -90985.947    246.59607    20721    226041.16    57.324098    44.814765     198.1276    -70.97007    433.89876    23.506977    22.161663    1.0882215    434.98698   -131.57192   -4032.4118 
   26900   -101184.46   -91009.321    247.12587    20721    226122.81   -4.9480145    93.239433   -47.632466   -60.451011    433.93573     23.51022    22.164721    1.0697325    435.00547    -128.6162   -4008.0975 
   27000   -101259.89   -91035.844     248.3135    20721    226144.05   -15.656477    128.04366   -144.34508   -30.668011    433.99282    23.509778    22.164304    1.0411875    435.03401   -92.595209   -4019.2692 
   27100   -101247.21   -91018.774    248.42031    20721    226327.98    19.065278     103.8903    210.41703   -257.11149    433.98414    23.519572    22.173537    1.0455324    435.02967   -114.68487   -4010.3799 
   27200   -101099.04   -90999.697    245.28488    20721    226147.43    21.429693    22.466158   -218.99764    260.82057     433.9885     23.51007     22.16458    1.0433496    435.03185   -126.99767   -4023.5193 
   27300   -101184.09   -90944.892    248.68157    20721    226191.16   -32.755878    192.90875   -143.67248   -147.50391    433.97003    23.512844    22.167194    1.0525859    435.02261   -133.49579   -4070.6528 
   27400   -101197.74   -90997.756    247.72915    20721    226189.14   -90.233275   -10.764001    136.82226   -396.75809    433.96119    23.512979    22.167321    1.0570056    435.01819   -114.21666   -4033.8072 
   27500   -101168.64   -90936.898    248.50052    20721    226117.24   -40.309452   -14.146462     92.23211     -199.014    433.88704     23.51125    22.165691    1.0940778    434.98112   -130.21627   -4085.9356 
   27600   -101109.08   -90896.759     248.0288    20721    226259.91   -1.3174656    73.937595   -82.736634    4.8466423    434.02459    23.514938    22.169169    1.0253032     435.0499   -146.76388     -4106.06 
   27700   -101144.67   -90887.276    249.12357    20721    226044.75   -73.724367   -80.539304   -156.36701    15.733207    433.99145    23.504653    22.159472    1.0418762    435.03332   -136.59239   -4131.4443 
   27800    -101059.2   -90861.765    247.66722    20721    225971.35   -3.1356248   -11.149517    -3.519175    5.2618177     433.6106    23.511155    22.165602    1.2322992     434.8429   -156.93013   -4142.9589 
   27900   -101166.17   -90817.549    251.33927    20721    226202.97    9.3040783    195.16458    56.873489   -224.12583     434.0025    23.512578    22.166944    1.0363516    435.03885   -147.63586   -4192.4456 
   28000      -101207   -90832.425    251.96957    20721     226235.2   -99.180945   -273.09418    29.966935   -54.415585    434.09153    23.511842     22.16625   0.99183696    435.08336   -152.47173    -4167.572 
   28100   -101133.52   -90856.507    249.59993    20721    226084.96    -8.408389   -1.9272344    66.388236   -89.686168    433.64694    23.516079    22.170244    1.2141289    434.86107   -165.47439   -4139.3807 
   28200   -100976.21   -90841.644    246.14041    20721    226044.52      29.0266   -97.112317    24.322609    159.86951    433.89098    23.507362    22.162026      1.09211    434.98309   -162.72282   -4159.9948 
   28300   -100980.45   -90798.274    247.29679    20721    225941.89    25.365386   -61.192689   -112.43678    249.72563      433.871    23.502566    22.157505    1.1021014     434.9731   -167.68206   -4202.8401 
   28400    -101031.3   -90817.882    248.05538    20721    226170.49    8.2259294    31.337589   -40.107653    33.447852     434.0389    23.509904    22.164423    1.0181496    435.05705   -163.58921   -4181.4708 
   28500   -101151.99   -90801.112    251.39406    20721    225995.21   -62.377556   -223.03854   -94.556897    130.46277    433.83992    23.506181    22.160913    1.1176423    434.95756   -178.09289   -4187.6109 
   28600   -101101.77   -90827.983     249.5216    20721    226076.29    -63.83616   -121.99565   -205.90911    136.39628    434.06818    23.504215    22.159059    1.0035088    435.07169   -151.26243   -4185.8461 
   28700   -101059.92   -90853.787    247.87844    20721    226268.54   -20.848395   -80.737587   -101.02019    119.21259    434.28215    23.508413    22.163017   0.89652643    435.17867   -158.92179   -4149.0162 
   28800   -101078.54   -90824.912    249.03197    20721     226209.1     22.12866    26.924532    110.52088   -71.059431    434.15247    23.508835    22.163415   0.96136291    435.11384   -141.01929   -4201.4041 
   28900   -101060.45   -90819.658    248.72022    20721    226156.67    92.473077   -104.09651    218.59143    162.92431    433.89149    23.513179     22.16751    1.0918539    434.98335   -164.96485   -4189.4686 
   29000   -101039.41   -90806.659    248.52512    20721    226221.52   -52.066676   -64.000133    42.097154   -134.29705    433.98648    23.513976    22.168262    1.0443612    435.03084   -152.63691   -4204.4851 
   29100   -101087.47   -90837.085     248.9534    20721    226169.53    28.295827    80.035906    36.575329   -31.723753     433.9902    23.511173    22.165619    1.0424999     435.0327   -147.95694   -4187.2368 
   29200   -101077.17   -90864.858    248.02856    20721    226051.13    4.8487588    100.88905   -106.73762    20.394849    433.95176     23.50606    22.160798    1.0617217    435.01348   -148.63893   -4159.9785 
   29300   -101020.12   -90846.243    247.09523    20721    226126.52    86.934639    279.08807   -20.295979    2.0118218    433.89449    23.511531    22.165956    1.0903569    434.98484    -134.2689   -4197.5331 
   29400   -101090.34   -90873.582     248.1366    20721    226101.66   -21.014758    68.854156   -6.8152652   -125.08316    433.85769    23.511235    22.165678    1.1087572    434.96644    -130.8983   -4169.5225 
   29500   -101119.89   -90859.087     249.2064    20721    226043.01   -112.91944   -316.61573   -109.88112    87.738527    433.91566    23.506615    22.161322    1.0797698    434.99543   -137.08434   -4177.1752 
   29600   -100960.81   -90807.794    246.58836    20721    226083.25    104.50403   -29.015672    251.81636    90.711415    433.50212    23.519918    22.173863    1.2865397    434.78866   -150.63838   -4224.2014 
   29700   -101086.96   -90771.366    250.53699    20721    226100.77     3.633873    61.605656   -21.810434   -28.893603    433.75068    23.514089    22.168368     1.162262    434.91294   -169.52499   -4238.2349 
   29800   -100961.62   -90828.353     246.1088    20721    226113.72     79.88159    56.998575    92.220152    90.426042    433.76816    23.514288    22.168556    1.1535204    434.92168   -168.54993   -4185.1116 
   29900   -101009.77   -90762.819    248.87001    20721     226131.3   -59.656108    115.38225   -69.034572   -225.31601    433.66109    23.518105    22.172155     1.207057    434.86814   -171.24107   -4243.2635 
   30000   -100948.71   -90804.531    246.37394    20721    225981.02    65.365661    174.77419    85.831957   -64.509166     433.5643    23.512913     22.16726    1.2554489    434.81975   -173.34355   -4211.7563 
   30100   -101076.84   -90831.406    248.83304    20721    225983.32   -73.006727    48.037737   -69.691182   -197.36674    433.67885    23.509927    22.164445    1.1981772    434.87702   -164.36518   -4188.0961 
   30200   -101006.71   -90802.992    247.81997    20721    225989.87    24.038213    92.425726    -19.23978   -1.0713064     433.9145    23.503883    22.158747    1.0803502    434.99485    -156.6318   -4230.1462 
   30300   -101059.51   -90830.983     248.4223    20721    226119.64    56.269648    96.177854    86.272244   -13.641153     434.0434    23.507139    22.161816    1.0158978     435.0593   -154.43682    -4204.268 
   30400   -100997.04   -90804.051    247.55923    20721    226144.13    6.7980054   -82.180772     41.85307    60.721718    433.93622    23.511315    22.165753    1.0694905    435.00571   -152.79069   -4228.7963 
   30500   -101036.76   -90804.904    248.50315    20721    226198.88    27.541489   -41.149008    314.92341   -191.14994    433.74514     23.51934    22.173319    1.1650281    434.91017   -168.27645   -4214.3929 
   30600   -101010.97   -90832.495    247.20671    20721     226209.4     44.32445   -15.564119    140.63917    7.8983031     433.6048    23.523693    22.177422    1.2351987       434.84   -157.08473    -4199.818 
   30700   -101097.19   -90860.347    248.62444    20721    226300.04   -47.226705    137.60052   -114.94336   -164.33728    433.97034    23.518494    22.172521    1.0524284    435.02277    -148.2087   -4177.0403 
   30800   -100970.42   -90845.367    245.90932    20721     226187.1   -21.228977   -192.10869    -152.1567    280.57846    434.08979    23.509389    22.163938   0.99270674    435.08249   -166.07055   -4177.7973 
   30900    -101081.5   -90797.995    249.75768    20721     226286.5  -0.88328045   -93.112073   -96.997098    187.45933     434.0643    23.515245    22.169458    1.0054508    435.06975   -168.98147   -4221.6972 
   31000   -101106.46   -90826.249    249.67776    20721    226155.15   -4.4793966   -129.28229   -139.57827    255.42237    434.16642    23.505654    22.160416   0.95438926    435.12081   -158.41305   -4210.9251 
   31100   -101092.89   -90771.218    250.68462    20721    226133.27   -21.962818    36.529129   -3.7810336   -98.636548    434.18126    23.504116    22.158966   0.94697121    435.12823   -181.11797   -4243.1887 
   31200    -100999.6   -90765.608    248.55505    20721    226307.06    86.250935    242.02645    94.424026   -77.697666    434.24728    23.511358    22.165793   0.91396187    435.16124   -164.86963    -4265.327 
   31300   -101016.84   -90779.301    248.64135    20721    225924.21    53.949443    -124.7583    357.48498   -70.878359    433.66547    23.507215    22.161888    1.2048634    434.87034   -166.92353   -4263.8298 
   31400   -100998.08   -90751.454    248.86196    20721    226006.46    66.046966    172.17377    221.58821   -195.62108    433.53797    23.514951    22.169181    1.2686147    434.80659   -180.16765   -4275.2013 
   31500   -100883.03   -90714.148    246.97391    20721    226182.71    108.30993    104.03124    242.20158   -21.303048    433.83031    23.516191     22.17035    1.1224462    434.95275   -185.49843   -4306.8694 
   31600   -100959.81   -90710.514    248.92694    20721    226032.95    36.119134   -203.89467   -136.89199    449.14406    433.61726    23.514179    22.168453     1.228972    434.84623     -171.423   -4324.3303 
   31700   -100869.86   -90682.355    247.42602    20721    225898.17    100.49315    114.40609    42.560177    144.51318    433.47006    23.511158    22.165605    1.3025702    434.77263   -170.80873   -4362.4463 
   31800   -100906.01    -90691.61    248.07933    20721    225933.63    70.631656    1.7805909   -73.998365    284.11274    433.51043    23.511908    22.166312    1.2823842    434.79282   -197.15842   -4326.4066 
   31900   -100977.26   -90658.264     250.6197    20721    226026.19    13.163162    9.5457175   -27.423509    57.367276    433.65226    23.512878    22.167226    1.2114697    434.86373   -205.62672   -4345.6293 
   32000   -100896.14   -90651.207    248.82097    20721    225949.29    87.115965   -56.707955    122.77922    195.27663     433.8122    23.504544    22.159369    1.1314995     434.9437   -199.32198   -4367.3259 
   32100   -100906.95   -90637.292    249.42142    20721    226004.02   -32.789336   -55.356379   -59.197608    16.185977    433.71491    23.510027    22.164538     1.180146    434.89505   -170.43378   -4403.9358 
   32200   -100885.69   -90602.911    249.74003    20721     225827.5   -3.0151635   -2.9527322    166.65202   -172.74478    433.39526    23.509509     22.16405    1.3399678    434.73523   -190.97579   -4424.6078 
   32300   -100899.32   -90638.723    249.20121    20721    225752.87  -0.25087775    54.381239   -157.86083    102.72696     433.2307    23.510087    22.164596    1.4222492    434.65295   -166.67771   -4418.0468 
   32400   -100849.45    -90618.28    248.48662    20721    225752.49    33.093161   -75.032622     6.369624    167.94248    433.06292    23.514621     22.16887    1.5061385    434.56906   -185.08846   -4422.1234 
   32500   -100913.67   -90623.264    249.92538    20721    226087.99    34.119521   -16.113927   -203.41033    321.88282    433.33829     23.52461    22.178287    1.3684536    434.70675   -184.57436   -4408.7971 
   32600   -100870.33   -90601.614    249.39856    20721     225796.8   -20.660116   -16.732716   -238.13661    192.88897    432.80911    23.523823    22.177546    1.6330428    434.44216   -185.30333   -4435.4407 
   32700   -100999.43   -90599.999    252.57325    20721    225959.32   -44.401544    69.076513    118.65369   -320.93484    433.10773    23.524173    22.177876    1.4837333    434.59147   -184.59527   -4433.9381 
   32800   -100883.99   -90597.745     249.8242    20721     225660.8   -110.08848   -167.87546   -46.428806   -115.96117    433.14647    23.507578     22.16223    1.4643641    434.61084   -212.25799   -4417.1965 
   32900   -100807.62   -90546.746    249.20806    20721    225781.94    56.532919   -18.017104    139.20839    48.407469    433.20927    23.512183    22.166571    1.4329646    434.64224   -208.84702   -4476.0125 
   33000    -100883.9   -90585.529    250.11873    20721    225738.25    101.24083    173.32161   -58.237195    188.63807    432.99665    23.515679    22.169867    1.5392737    434.53593   -212.93244   -4438.2169 
   33100   -100933.73   -90522.267    252.86553    20721    225731.63   -23.297624    53.008464   -81.726648    -41.17469    433.17304    23.510546    22.165028    1.4510788    434.62412   -232.32141   -4476.9176 
   33200   -100892.35   -90538.756    251.45998    20721    225657.28   -19.810038   -94.512955    184.63423   -149.55139     433.3635    23.501507    22.156507    1.3558494    434.71935   -221.55821   -4476.8864 
   33300   -100910.06   -90558.058    251.42119    20721    225795.85   -12.751297   -75.390576    52.920714   -15.784028    433.30849    23.510214    22.164715     1.383356    434.69184   -228.99552   -4445.9411 
   33400    -100805.8   -90533.764    249.47917    20721    225620.57   -34.358023     4.768608   -64.832101   -43.010577    433.02203     23.50886    22.163438    1.5265836    434.54862   -223.82106   -4482.1674 
   33500   -100863.25    -90569.23    250.01316    20721    225764.04    98.711678    -14.72005    227.65165    83.203435    433.12375    23.513571     22.16788    1.4757237    434.59948   -208.51497   -4464.7366 
[...]
  491800   -95810.524   -84145.279    283.31628    20721    221064.46   0.90008948     67.12465   -93.370196    28.945815    424.11319    23.513419    22.167737    5.9810041     430.0942    5227.5272   -23492.227 
  491900   -95758.412   -84153.234    281.85743    20721    221212.73   -59.722512    25.460394    133.88983   -338.51776    424.09741    23.521741    22.175582    5.9888928    430.08631    5259.3424   -23508.943 
  492000   -95761.574   -84209.341    280.57155    20721    221081.04   -7.5755647   -150.67242    37.114706     90.83102    424.15912    23.513028    22.167368    5.9580375    430.11716    5278.5839   -23480.058 
  492100    -95834.68   -84253.275    281.28005    20721    221039.75     100.9466    244.64207   -90.029994    148.22771    424.32339    23.506281    22.161007    5.8759042     430.1993    5261.9988   -23427.636 
  492200   -95838.574   -84238.752    281.72736    20721    220884.99    21.849132    83.851054    219.70023   -238.00389     424.7248    23.486944    22.142777     5.675201        430.4    5273.7626   -23456.058 
  492300   -95819.503   -84212.327    281.90595    20721    221290.37   -86.428581   -22.866827   -250.89679     14.47788    425.09232    23.498321    22.153503    5.4914417    430.58376    5289.9711   -23482.376 
  492400   -95905.282    -84242.43    283.25816    20721    221195.79     22.76605     156.9548   -29.893103   -58.763549    424.57321    23.507657    22.162305    5.7509973     430.3242    5274.4235    -23447.85 
  492500   -95802.446   -84265.238    280.20664    20721     221336.2    37.399684   -91.751372    173.21914    30.731284    424.85181    23.507406    22.162067    5.6116957     430.4635    5290.7061   -23437.847 
  492600   -95842.872   -84244.452    281.69329    20721     221229.7    117.32056    108.71775    282.91364   -39.669714    424.79338    23.503366    22.158259    5.6409107    430.43429    5298.0324   -23477.639 
  492700   -95755.164   -84259.099    279.20739    20721    221370.51   -2.7635755    201.90546   -215.88818    5.6919955    424.51041    23.518679    22.172696    5.7823955     430.2928       5278.4   -23431.514 
  492800   -95788.069   -84265.896    279.84149    20721    221055.24    -15.85406    235.65881   -404.76431    121.54333    424.19602    23.510633     22.16511    5.9395899    430.13561    5272.7401   -23429.108 
  492900   -95734.681   -84282.322    278.14589    20721    221092.95    57.539011    25.707593    40.886423    106.02302     424.4993    23.504238    22.159081    5.7879487    430.28725    5292.8026   -23437.171 
  493000   -95773.587   -84247.488    279.93684    20721     221291.7    88.038676    77.322532    107.55271    79.240784     424.8155    23.506047    22.160787     5.629851    430.44535    5271.9852   -23446.379 
  493100   -95750.208   -84273.856     278.7286    20721    221317.64    78.914557    -57.48957    28.019545     266.2137    424.68166    23.511129    22.165577    5.6967688    430.37843    5283.2975   -23431.156 
  493200   -95787.253   -84226.351    280.78209    20721     221461.2    2.5819307    73.071475   -88.320831    22.995147    424.49894    23.523814    22.177536    5.7881303    430.28707    5283.7461   -23476.467 
  493300   -95841.742   -84264.472    281.17962    20721    221402.83    -110.3057    -390.0574   -140.97928    200.11957    424.16435    23.529989    22.183358    5.9554258    430.11977    5295.3577    -23446.02 
  493400   -95805.918   -84289.153    279.71013    20721    221565.62    111.15822    221.87645    193.22131   -81.623105    424.13726    23.539389    22.192221     5.968972    430.10623     5306.006   -23440.245 
  493500   -95795.421   -84289.325    279.45101    20721    221207.85   -48.093681   -67.619879    248.68607   -325.34723    423.90782    23.526741    22.180296    6.0836876    429.99151    5321.0538    -23460.14 
  493600   -95893.672   -84304.973    281.45718    20721    221297.56    22.950868   -86.417942    11.322253    143.94829    423.85757    23.532906    22.186108     6.108815    429.96639    5314.0069   -23440.117 
  493700   -95774.454   -84305.874    278.53986    20721    221497.49    44.228733    58.882415     113.6179   -39.814117    424.19933    23.534048    22.187185    5.9379338    430.13727    5315.1556   -23434.844 
  493800   -95960.655   -84334.454    282.36803    20721    221520.11   -17.529881   -56.413652    15.770521   -11.946512    424.31645    23.532001    22.185255     5.879374    430.19583    5328.3754   -23418.835 
  493900   -95949.273   -84332.053    282.14991    20721     221318.1    121.56382     219.7701    261.97082   -117.04948    424.20444    23.524374    22.178065      5.93538    430.13982    5292.3206   -23398.903 
  494000   -95866.143   -84272.076    281.58759    20721    221433.06   -50.086725    23.356148   -312.46101    138.84469    424.20678    23.530418    22.183763    5.9342093    430.14099    5297.1133    -23452.15 
  494100   -95736.222   -84220.939    279.67413    20721    221495.19   -72.903621     6.627817   -284.97225    59.633568    424.11518     23.53626     22.18927    5.9800122    430.09519    5284.0501   -23487.587 
  494200    -95803.67   -84268.996    280.14509    20721    221242.04   -35.726092   -143.84587    272.72767   -236.06008    423.82052    23.530982    22.184295    6.1273385    429.94786    5301.8567   -23472.039 
  494300   -95848.415   -84273.717    281.11716    20721     221251.2    16.352915   -51.412478     139.6776   -39.206371    423.61581    23.537154    22.190113    6.2296969     429.8455    5298.9362   -23468.118 
  494400   -95793.525   -84216.119    281.18292    20721    221279.47    19.977794    116.47823   -294.82604     238.2812    423.40344     23.54456    22.197096    6.3358824    429.73932      5291.39   -23516.209 
  494500   -95787.517   -84220.441    280.93205    20721    221422.99    90.612012    155.92633    25.659711    90.249993    423.67832    23.544553    22.197089    6.1984398    429.87676    5290.2227   -23513.949 
  494600    -95752.66   -84170.967    281.28705    20721    221537.93    10.462124   -16.115928    109.43641   -61.934112     423.8849    23.544924    22.197438    6.0951509    429.98005    5303.4178   -23570.873 
  494700     -95776.4   -84243.935    280.09144    20721     221309.5    99.854446    44.373164    75.165838    180.02434    423.75802    23.536304    22.189312    6.1585875    429.91661    5287.4974   -23495.527 
  494800   -95873.554   -84246.063    282.39936    20721    221247.31   -21.577664    34.004179   -62.233278   -36.503893    423.73035    23.533766    22.186919    6.1724233    429.90278    5299.0915   -23504.504 
  494900   -95737.765   -84236.346    279.33742    20721    221246.93    96.099317    11.613766    58.360513    218.32367    423.65318    23.535889    22.188921    6.2110114    429.86419    5323.9102   -23542.398 
  495000   -95795.737   -84218.401    281.18123    20721    221371.18   -7.5634519    182.15837   -62.663843   -142.18488    423.89544    23.535768    22.188807    6.0898777    429.98532    5309.4054   -23540.634 
  495100   -95902.476    -84224.74    283.61968    20721    220890.61   -47.686424     43.55195   -73.911015   -112.70021    423.39798    23.524015    22.177726    6.3386088    429.73659    5308.1193    -23550.06 
  495200   -95881.902   -84279.797    281.78279    20721    220923.81    38.901489    221.49496    130.27059   -235.06109    423.44575    23.524456    22.178142    6.3147243    429.76048    5323.2842   -23515.458 
  495300   -95874.644   -84247.523    282.39038    20721    221117.51   -47.362752   -92.672944   -137.10033    87.685014    423.26963    23.539662    22.192478    6.4027873    429.67241    5319.8695   -23534.805 
  495400   -95858.357   -84235.393    282.28942    20721    221237.67    70.915439   -79.971075    118.48161    174.23578    423.30652    23.545031     22.19754    6.3843383    429.69086    5326.6475   -23555.635 
  495500   -95930.261   -84248.023    283.72901    20721    220963.37   -69.192829   -153.05843    37.534188   -92.054247    422.88108    23.542264    22.194931    6.5970588    429.47814    5342.6782   -23565.661 
  495600    -95825.18   -84258.098    280.93218    20721    221081.43    69.707833   -157.03962    223.09168    143.07144    422.79701    23.550894    22.203067    6.6390972     429.4361     5344.336   -23559.055 
  495700   -95877.433   -84267.421    281.97485    20721    221131.63    11.791729   -108.58179     8.296571    135.66041    422.93954    23.549599    22.201846    6.5678283    429.50737    5343.6285   -23545.566 
  495800   -95794.278   -84255.753    280.23862    20721    221142.97   -69.297869   -46.633509    12.735634   -173.99573    422.91366    23.550923    22.203094    6.5807684    429.49443    5338.0225   -23548.484 
  495900   -95793.293   -84297.661    279.19685    20721    221039.88    -12.42179    85.487813     94.45193   -217.20511    422.99874    23.543065    22.195686    6.5382289    429.53697    5342.1727   -23518.125 
  496000   -95808.514   -84305.687    279.37161    20721    220940.18    55.151567    23.368796    -6.157727    148.24363    422.77384    23.544015    22.196581    6.6506814    429.42452    5330.8183    -23507.91 
  496100   -95861.952   -84276.472    281.37903    20721    220821.06   -28.735205    64.251891   -196.86445    46.406947    422.93512    23.533179    22.186365    6.5700417    429.50516    5335.5881   -23543.857 
  496200   -95890.372   -84286.743    281.81982    20721    220734.89   -58.590987    69.534686   -297.84743    52.539779     423.2521    23.519774    22.173728     6.411551    429.66365    5334.8816   -23537.435 
  496300   -95888.208   -84268.825    282.20244    20721    221020.03    49.117975   -76.907997    140.48705    83.774869     423.3873    23.531202    22.184502    6.3439477    429.73125    5329.9046   -23545.946 
  496400   -95898.165   -84288.067    281.97693    20721    221023.34    53.813505    187.11929    64.615648   -90.294426    423.28516    23.534218    22.187345    6.3950206    429.68018    5322.6081   -23520.554 
  496500   -95855.047   -84323.622    280.06617    20721    220817.03    143.74488    -54.76083    450.11192    35.883552    423.25531    23.524061    22.177769    6.4099475    429.66525    5341.5436   -23518.349 
  496600   -95827.621   -84286.047    280.31267    20721    221018.24   -73.288924    60.305044   -113.61557   -166.55625    422.86579    23.545613    22.198088    6.6047046     429.4705    5354.2857   -23553.963 
  496700   -95901.591   -84355.359    280.42581    20721    220923.51   -3.9041903   -4.9289737   -170.58744    163.80384    423.16293      23.5323    22.185537    6.4561367    429.61906     5378.891   -23515.346 
  496800   -95836.168   -84354.345     278.8615    20721    220997.59    10.559452    17.555796   -117.35988    131.48244    423.16123    23.536292    22.189301    6.4569841    429.61822    5348.7171   -23488.523 
  496900   -95808.444   -84365.042    277.92835    20721    221033.04    24.552287   -132.74323    63.569983    142.83011    423.13148    23.539007     22.19186    6.4718576    429.60334    5363.8664   -23491.149 
  497000   -95955.168   -84380.114    281.12581    20721    220742.33    23.511736   -211.37201   -50.911789      332.819    423.29124    23.519083    22.173077    6.3919825    429.68322     5356.705   -23483.102 
  497100   -95791.461   -84291.402    279.30438    20721    220852.41   -67.136751   -204.59716   -149.12404    152.31094    422.94496    23.534575    22.187682    6.5651206    429.51008    5348.2556   -23558.187 
  497200   -95852.916    -84304.19    280.48636    20721    220871.87   -74.832403    74.206232    -228.4318   -70.271646    422.90208    23.536805    22.189784    6.5865589    429.48864     5350.757   -23546.893 
  497300   -95873.293   -84298.112    281.12889    20721    220604.67   -74.347575    152.97447   -155.64162   -220.37557    422.89134    23.522862     22.17664    6.5919298    429.48327    5341.1194   -23554.727 
  497400   -95846.866   -84352.913    279.15611    20721    220737.32    30.012666   -57.623236    142.56254    5.0986946    423.25984    23.519688    22.173647    6.4076801    429.66752    5365.8753   -23527.163 
  497500   -95917.041   -84337.406    281.23707    20721    220701.67   0.72599593    6.5891046   -68.577373    64.166256    423.13041    23.521386    22.175247    6.4723954     429.6028    5357.3581    -23535.79 
  497600   -95848.135   -84336.269    279.59113    20721    221041.46    53.745234   -27.559301    130.99928    57.795728     423.1229    23.539694    22.192508    6.4761505    429.59905     5370.511   -23542.649 
  497700    -95922.42   -84388.169    280.13481    20721    220556.11    38.728824      192.822    55.102395   -131.73792    422.88708    23.520392     22.17431     6.594059    429.48114    5379.1053     -23517.1 
  497800   -95880.605   -84364.786    279.68716    20721    220919.84   -2.1292291    4.1964153    175.77028   -186.35438    422.96293    23.537667    22.190597    6.5561336    429.51907    5377.8194   -23527.788 
  497900   -96011.407   -84434.751    281.16472    20721    220541.04   -44.904426    141.77841    -63.31183   -213.17985    422.74492    23.523542    22.177281    6.6651378    429.41006    5386.7986    -23480.27 
  498000   -95934.449   -84410.868    279.87567    20721       220840    20.815756   -79.841013   -66.778591    209.06687    422.75308    23.539254    22.192093    6.6610592    429.41414    5390.1585   -23498.516 
  498100   -96036.541   -84389.601    282.87172    20721    220902.34   -148.74909   -304.65032   -285.44347    143.84651    423.09026    23.533193    22.186379    6.4924695    429.58273    5405.9665    -23527.92 
  498200    -95938.49   -84365.246    281.08186    20721    220676.79   -57.412157     -30.6407    115.30816   -256.90393    422.64719    23.533502     22.18667    6.7140067    429.36119    5413.4916   -23574.385 
  498300   -95877.843   -84340.042    280.22104    20721    220525.81   -47.040041   -57.126924   -182.66061    98.667405    422.68101    23.524509    22.178192    6.6970964     429.3781    5414.8222   -23604.696 
  498400   -96013.653   -84390.731     282.2884    20721    220822.35    32.398269    44.883531   -181.96987    234.28114    422.77606    23.537674    22.190603    6.6495691    429.42563    5413.3586   -23551.314 
  498500   -95823.516   -84301.685    279.83315    20721    220827.03    46.779942    222.21279     5.808614   -87.681579    423.00896    23.531442    22.184728    6.5331189    429.54208     5400.314   -23624.946 
  498600   -95970.629   -84374.118    281.64695    20721    220789.26    21.947486    87.343453    11.512716   -33.013712    423.45191     23.51712    22.171226    6.3116428    429.76356    5425.0778    -23581.93 
  498700   -95876.827    -84365.89    279.56859    20721    221097.18    71.331686    275.96226   -221.48099    159.51379    423.59257    23.529606    22.182997    6.2413158    429.83388    5415.5322   -23572.156 
  498800   -96027.283   -84375.625     282.9863    20721    221123.45   -9.7688286    41.013115   -66.622874   -3.6967262    423.50197     23.53352    22.186688    6.2866164    429.78858    5421.1437   -23566.817 
  498900   -95869.025   -84343.471     279.9236    20721    221049.92    14.480588     47.98445   -157.15069      152.608    423.89254    23.518765    22.172776    6.0913279    429.98387    5416.1354   -23598.612 
  499000   -96037.525   -84335.764    284.20317    20721    221270.18   -65.325048   -164.79354   -189.44497    158.26337    423.89209    23.530492    22.183832    6.0915532    429.98365    5427.8936   -23608.476 
  499100   -95962.118   -84373.427    281.45701    20721    221216.75   -76.348465    190.24058    -91.21666   -328.06931     423.8526    23.528747    22.182187    6.1113014     429.9639    5440.0258   -23586.839 
  499200   -95828.459    -84351.23    278.74993    20721     221119.9    110.64123    46.376725    -76.87261    362.41959    423.76069    23.526147    22.179736    6.1572571    429.91794    5425.6877   -23607.706 
  499300    -95988.45    -84370.83    282.15963    20721    220901.59    3.8033361    81.836029    -102.6838    32.257778    423.35029    23.525925    22.179527    6.3624536    429.71275    5434.6672   -23599.316 
  499400   -95963.268   -84342.845    282.22768    20721    221119.32    3.6473875   -98.886469    150.79492   -40.966285    423.39519    23.536268    22.189278    6.3400064    429.73519    5432.5987   -23620.387 
  499500    -95808.56   -84316.785    279.10319    20721    221227.13    84.636299    103.02176    220.43063   -69.543485    423.51752    23.538605    22.191481    6.2788422    429.79636    5414.0412   -23627.779 
  499600   -95786.171   -84276.868    279.52889    20721    221052.82   -46.709159    45.011608     -28.3998   -156.73929    423.01063    23.543423    22.196023    6.5322868    429.54291    5399.7866   -23653.379 
  499700   -95832.346   -84320.366    279.59391    20721    220882.78   -7.4681534   -8.3231848   -52.435915    38.354639    422.94392    23.536222    22.189235    6.5656405    429.50956    5433.7518   -23654.186 
  499800   -95791.722   -84271.513    279.79378    20721    221163.77    69.518052    106.74663    507.73257   -405.92505      423.154    23.545341    22.197832    6.4606011     429.6146    5430.0822   -23695.029 
  499900   -95857.424   -84261.832    281.62461    20721    221009.64   -80.087746   -24.950132   -333.03679    117.72368    423.25892    23.534218    22.187345    6.4081408    429.66706    5429.6921   -23707.223 
  500000   -95946.356   -84281.504    283.30675    20721    221233.58   -82.721643    5.5513834   -395.52147    141.80515    423.80032    23.531093    22.184399    6.1374379    429.93776    5428.3801   -23681.811 
Loop time of 69588.1 on 32 procs for 500000 steps with 20721 atoms

Performance: 1.242 ns/day, 19.330 hours/ns, 7.185 timesteps/s
97.4% CPU use with 32 MPI tasks x no OpenMP threads

MPI task timing breakdown:
Section |  min time  |  avg time  |  max time  |%varavg| %total
---------------------------------------------------------------
Pair    | 12989      | 13906      | 15911      | 820.5 | 19.98
Bond    | 0.76571    | 0.89262    | 1.2186     |   8.6 |  0.00
Kspace  | 13131      | 15137      | 16055      | 787.0 | 21.75
Neigh   | 10399      | 12168      | 14414      |1263.0 | 17.49
Comm    | 414.58     | 2047.4     | 4034.8     |2233.9 |  2.94
Output  | 7.8902     | 30.791     | 41.266     | 206.3 |  0.04
Modify  | 24971      | 26211      | 29060      | 876.8 | 37.67
Other   |            | 86.81      |            |       |  0.12

Nlocal:    647.531 ave 704 max 607 min
Histogram: 5 1 6 8 1 1 2 5 2 1
Nghost:    7335.12 ave 7862 max 6827 min
Histogram: 2 1 8 6 3 0 1 0 7 4
Neighs:    237985 ave 275516 max 214289 min
Histogram: 5 4 11 1 0 1 2 5 2 1
FullNghs:  475974 ave 550977 max 431074 min
Histogram: 5 7 9 0 0 1 2 5 1 2

Total # of neighbors = 15231155
Ave neighs/atom = 735.059
Ave special neighs/atom = 2
Neighbor list builds = 500000
Dangerous builds not checked
write_data production.R1
PPPM initialization ...
  extracting TIP4P info from pair style
WARNING: Using 12-bit tables for long-range coulomb (../kspace.cpp:316)
  G vector (1/distance) = 0.345885
  grid = 400 48 48
  stencil order = 5
  estimated absolute RMS force accuracy = 0.000402365
  estimated relative force accuracy = 1.21171e-06
  using double precision FFTs
  3d grid and FFT values/proc = 67260 38400
write_restart restartproduction.R1
PPPM initialization ...
  extracting TIP4P info from pair style
WARNING: Using 12-bit tables for long-range coulomb (../kspace.cpp:316)
  G vector (1/distance) = 0.345885
  grid = 400 48 48
  stencil order = 5
  estimated absolute RMS force accuracy = 0.000402365
  estimated relative force accuracy = 1.21171e-06
  using double precision FFTs
  3d grid and FFT values/proc = 67260 38400
Total wall time: 19:19:48
