LAMMPS (30 Jul 2016)
# Sets up LAMMPS simulation for transient melting of ice: TIP4P/Ice
# Ensure cold thermostats do not move
# Thinbox: 16x1x1
# Defects
# Order param l=2

#### setting MD parameters ####
units real
boundary p p p
atom_style full

# read ice box in restart file
#read_data ice-ih-restart.data
read_restart restart.state
  orthogonal box = (0.439362 0.0237086 0.0223517) to (435.636 23.5075 22.1621)
  32 by 1 by 1 MPI processor grid
  20736 atoms
  13824 bonds
  6912 angles
  2 = max # of 1-2 neighbors
  1 = max # of 1-3 neighbors
  1 = max # of 1-4 neighbors
  2 = max # of special neighbors

#replicate 16 boxes, 16x1x1


#### force field definition ####
pair_style      lj/cut/tip4p/long 2 1 1 1 0.1577 10.0
pair_modify	tail yes

kspace_style	pppm/tip4p 1.0e-6

bond_style	harmonic
angle_style	harmonic
dihedral_style	none
improper_style	none

bond_coeff	1 450.0 0.9572
angle_coeff	1 55.0 104.52


# reset pair coeff
pair_coeff	* * 0.0 0.0

#OO
pair_coeff	2 2 0.21085 3.1668
#OH
pair_coeff	* 1 0.0000 0.0000

neighbor        2.0 bin
neigh_modify    every 1 delay 1 check no

timestep	2.0
fix		constraints all shake 0.000001 20 0 b 1 a 1
  0 = # of size 2 clusters
  0 = # of size 3 clusters
  0 = # of size 4 clusters
  6912 = # of frozen angles

group water type 1 2
20736 atoms in group water

#*********** SIMULATION PARAMETER TO ADJUST ****************
#Box dimensions
variable lx equal lx
variable ly equal ly
variable lz equal lz

### Temperature of the hot and cold regions ####
variable thi equal 375
variable tlo equal 215
variable runpressure equal 0.986923
# Configuration equilibrated in density and temperature

# Define dx here

variable lx equal lx
variable ly equal ly
variable lz equal lz

variable xlo equal xlo
variable xhi equal xhi


variable dx equal 2.0

### ADD IN DEFECTS AT THE CENTRE OF THE HOT THERMOSTAT ###
variable x1 equal ${lx}/4.0
variable x1 equal 435.196475261678/4.0
variable y1 equal ${ly}/2.0
variable y1 equal 23.4837828399275/2.0
variable z1 equal ${lz}/2.0
variable z1 equal 22.1397965429883/2.0

region kill1 sphere ${x1} ${y1} ${z1} 3
region kill1 sphere 108.79911881542 ${y1} ${z1} 3
region kill1 sphere 108.79911881542 11.7418914199637 ${z1} 3
region kill1 sphere 108.79911881542 11.7418914199637 11.0698982714942 3
delete_atoms region kill1 compress no bond yes mol yes
Deleted 12 atoms, new total = 20724
Deleted 8 bonds, new total = 13816
Deleted 4 angles, new total = 6908




variable thip equal ${thi}*2.0/3.0
variable thip equal 375*2.0/3.0
variable tlop equal ${tlo}*2.0/3.0
variable tlop equal 215*2.0/3.0
variable cbl equal ${lx}*3.0/4.0-${dx}
variable cbl equal 435.196475261678*3.0/4.0-${dx}
variable cbl equal 435.196475261678*3.0/4.0-2
variable cbh equal ${lx}*3.0/4.0+${dx}
variable cbh equal 435.196475261678*3.0/4.0+${dx}
variable cbh equal 435.196475261678*3.0/4.0+2
variable hbl equal ${lx}*1.0/4.0-${dx}
variable hbl equal 435.196475261678*1.0/4.0-${dx}
variable hbl equal 435.196475261678*1.0/4.0-2
variable hbh equal ${lx}*1.0/4.0+${dx}
variable hbh equal 435.196475261678*1.0/4.0+${dx}
variable hbh equal 435.196475261678*1.0/4.0+2


#***************************************************
## EQUILIBRATION PERIOD - to reach the steady state ###
#run 0

#reset the timestep to start your production run
reset_timestep 0

# define a group to perform averages
#group s1 type 1
###*** SYSTEM THERMOSTATTING: HOT and COLD regions ***###

fix NVE all nve
fix PRESS all press/berendsen aniso ${runpressure} ${runpressure} 500000 couple yz
fix PRESS all press/berendsen aniso 0.986923 ${runpressure} 500000 couple yz
fix PRESS all press/berendsen aniso 0.986923 0.986923 500000 couple yz


### Apply THERMOSTATS ###

#set up the "hot region" in the middle of the box
region hot block ${hbl} ${hbh} 0 ${ly} 0 ${lz} units box
region hot block 106.79911881542 ${hbh} 0 ${ly} 0 ${lz} units box
region hot block 106.79911881542 110.79911881542 0 ${ly} 0 ${lz} units box
region hot block 106.79911881542 110.79911881542 0 23.4837828399275 0 ${lz} units box
region hot block 106.79911881542 110.79911881542 0 23.4837828399275 0 22.1397965429883 units box


#set up the "cold region" at the left end of the box
region cold block ${cbl} ${cbh} 0 ${ly} 0 ${lz} units box
region cold block 324.397356446259 ${cbh} 0 ${ly} 0 ${lz} units box
region cold block 324.397356446259 328.397356446259 0 ${ly} 0 ${lz} units box
region cold block 324.397356446259 328.397356446259 0 23.4837828399275 0 ${lz} units box
region cold block 324.397356446259 328.397356446259 0 23.4837828399275 0 22.1397965429883 units box

#set up the "cold region" at the right end of the box
#region cold2 block ${h2bl} ${xhi} 0 ${ly} 0 ${lz} units box


#Cold regions  unification
#region cold union 2 cold1 cold2 units box

#Create group of cold molecules
####group cool_ice region cold
####group cool_ice include molecule

####compute cold_temp cool_ice temp
####fix cold_rescale water temp/rescale 1 ${tlo} ${tlo} 0.0001 1.0
####fix_modify cold_rescale temp cold_temp

#this calculates the temperature using only the atoms in the "hot region"
#compute hot_temp all temp/region hot

# calculate the temperature using only WATER in the "hot region"
compute hot_temp water temp/region hot

#this calculates the temperature using only WATER in the "cold region"
compute cold_temp water temp/region cold


#set up a basic velocity rescale for the hot region WATER with thip
fix hot_rescale water temp/rescale 1 ${thip} ${thip} 1.0 1.0
fix hot_rescale water temp/rescale 1 250 ${thip} 1.0 1.0
fix hot_rescale water temp/rescale 1 250 250 1.0 1.0
#change the thermostat to only act on the "hot region"
#this is done by passing it the "hot temp" compute that we defined above
fix_modify hot_rescale temp hot_temp

#set up a basic velocity rescale for the cold region
fix cold_rescale water temp/rescale 1 ${tlop} ${tlop} 1.0 1.0
fix cold_rescale water temp/rescale 1 143.333333333333 ${tlop} 1.0 1.0
fix cold_rescale water temp/rescale 1 143.333333333333 143.333333333333 1.0 1.0
#change the thermostat to only act on the "cold region"
#this is done by passing it the "cold temp" compute that we defined above
fix_modify cold_rescale temp cold_temp

### Ensure MOMENTUM CONSERVATION ###

#ensure that linear momentum is conserved despite the "thermostatting" by velocity rescaling
fix cons_mom all momentum 1 linear 1 1 1


thermo 100
thermo_style custom step pe etotal temp atoms vol press pxx pyy pzz lx ly lz xlo xhi f_cold_rescale f_hot_rescale

group ox type 2
6908 atoms in group ox
group hy type 1
13816 atoms in group hy
compute KE all ke/atom
variable TEMP atom c_KE*4186.8/(1.3806488*6.02214129)

compute cc1 all chunk/atom bin/1d x center 2 units box
#fix TPROFILE all ave/chunk 1 500 500 cc1 v_TEMP density/number file temp.dat
fix TPROFILEox ox ave/chunk 1 500 500 cc1 v_TEMP density/number file temp-ox.dat
fix TPROFILEhy hy ave/chunk 1 500 500 cc1 v_TEMP density/number file temp-hy.dat

compute orderparam ox orientorder/atom degrees 1 2 nnn 4 cutoff 3.5
compute cc2 ox chunk/atom bin/1d x center 2 units box
#fix ORDERPARAM all ave/chunk 1 500 500 cc2 c_orderparam[1] file order-param.dat
fix ORDERPARAM all ave/chunk 1 500 500 cc2 c_orderparam[1] file order-param.dat

restart 50000 config.restart

run 500000
PPPM initialization ...
  extracting TIP4P info from pair style
WARNING: Using 12-bit tables for long-range coulomb (../kspace.cpp:316)
  G vector (1/distance) = 0.345602
  grid = 405 48 48
  stencil order = 5
  estimated absolute RMS force accuracy = 0.00040593
  estimated relative force accuracy = 1.22244e-06
  using double precision FFTs
  3d grid and FFT values/proc = 67260 38880
Neighbor list info ...
  2 neighbor list requests
  update every 1 steps, delay 1 steps, check no
  max neighbors/atom: 2000, page size: 100000
  master list distance cutoff = 12.3154
  ghost atom cutoff = 12.3154
  binsize = 6.1577 -> bins = 71 4 4
Memory usage per processor = 12.7742 Mbytes
Step PotEng TotEng Temp Atoms Volume Press Pxx Pyy Pzz Lx Ly Lz Xlo Xhi cold_res hot_resc 
       0   -103754.91   -94920.126    214.54121    20724    226270.04    56.486553    86.574653    12.576733    70.308273    435.19648    23.483783    22.139797   0.43936237    435.63584            0            0 
     100    -103546.9   -94638.441    216.33038    20724    226413.04    2.1945044   -92.449791    274.09947   -175.06616    435.14413    23.492615    22.148123    0.4655356    435.60966    1.6339057   -281.56059 
     200    -103647.1   -94645.472    218.59291    20724    226439.33   -36.969758    157.88735   -222.41944   -46.377186    435.28516    23.490173    22.145821   0.39501756    435.68018     20.41321   -292.72262 
     300   -103586.62   -94568.478    218.99373    20724    226196.29   -38.264749   -104.41858    87.957285   -98.332951    435.07921     23.48312    22.139171   0.49799676     435.5772    27.345348   -382.19623 
     400   -103605.15   -94514.772      220.748    20724    226320.75   -46.756396   -12.419658   -45.448794   -82.400737     435.2246    23.485656    22.141562   0.42530249     435.6499     39.11031   -446.16584 
     500   -103557.93   -94460.955    220.90812    20724     226296.1   -108.36338   -170.27084    63.031345   -217.85065    435.14811     23.48644    22.142302   0.46354685    435.61165    41.828707   -501.97556 
     600   -103453.09   -94374.113    220.47118    20724    226168.73   -48.128513   -187.69489    97.776536   -54.467187    435.08618    23.481501    22.137645   0.49451235    435.58069    12.721487   -564.72087 
     700   -103411.35   -94338.677    220.31812    20724    226342.89    3.0509892    169.93723   -10.464143   -150.32012    435.18709    23.487816    22.143599   0.44405519    435.63114    14.173667    -601.8576 
     800   -103332.67   -94321.837    218.81645    20724    226063.74     31.86501    160.47937   -46.567222   -18.317119    435.08291    23.476138     22.13259   0.49614643    435.57905    8.6046609   -621.13793 
     900   -103403.61   -94277.893    221.60617    20724    226308.24    51.349901    130.82777    11.909662    11.312268    435.08946    23.488653    22.144388   0.49286817    435.58233    6.5373049   -658.71921 
    1000   -103352.99   -94233.707    221.44992    20724    226197.84   -76.848539   -20.753943   -281.64388    71.852203    435.08756    23.482974    22.139034   0.49381796    435.58138    3.6135187    -698.0488 
    1100   -103440.77   -94228.232    223.71459    20724    226366.01   -22.549431    117.06406   -80.010852    -104.7015    435.06031    23.492438    22.147956   0.50744409    435.56776    3.1595364   -703.04586 
    1200   -103334.65   -94154.285    222.93312    20724    226135.31     36.23763    146.33223   -93.917759    56.298416    434.89787    23.484849    22.140801    0.5886632    435.48654    19.967047   -804.64093 
    1300   -103358.18    -94159.64    223.37445    20724    226213.92   -45.160273    -177.8628     161.8499   -119.46791    435.16563    23.481703    22.137835   0.45478452    435.62042    7.6923926   -781.12509 
    1400   -103238.66   -94158.111    220.50933    20724    226229.76   -82.221783   -96.263357   -87.985545   -62.416448    434.99213    23.487207    22.143025   0.54153337    435.53367    31.697183   -804.29594 
    1500   -103296.83   -94093.464    223.49171    20724    226341.76   -29.508543   -25.612318    174.80385   -237.71716    435.25617    23.485894    22.141787   0.40951356    435.66569    14.725276   -850.68174 
    1600   -103288.13   -94112.868    222.80928    20724    226329.97    69.121762    102.36829    95.858817     9.138182    435.26237    23.485115    22.141052   0.40641647    435.66878    34.773816   -859.38727 
    1700   -103335.92   -94073.009     224.9378    20724    226273.21   -82.530514    -95.31777   -84.828034   -67.445737    434.89481    23.492091    22.147629   0.59019706      435.485    30.863129   -891.84732 
    1800   -103223.76   -94039.092    223.03781    20724    226392.14    36.556163    60.700847    47.859667    1.1079742    435.19338    23.490202    22.145848   0.44091176    435.63429    50.423476   -947.07717 
    1900   -103289.09   -94004.991    225.45215    20724    226317.86   -40.071331   -25.557899   -208.05331    113.39721    434.79269    23.497167    22.152415   0.64125382    435.43395    23.736054   -953.69376 
    2000   -103233.63   -94018.243    223.78361    20724    226305.13    30.034906     132.3039    95.729324    -137.9285    435.08024    23.488741     22.14447   0.49747961    435.57772     38.18942   -960.30993 
    2100   -103268.02   -94050.885    223.82609    20724    226270.06   -35.641278   -181.26421   -5.3370064    79.677386    434.93538    23.490832    22.146442    0.5699121    435.50529    68.596695   -957.53098 
    2200   -103306.74   -94055.344     224.6581    20724    226257.06    23.421778   -68.609472   -130.82232    269.69712    434.83519    23.492863    22.148357   0.62000289     435.4552    70.114593   -958.58428 
    2300   -103313.18   -94043.127    225.11112    20724    226291.75    -13.40036   -21.058431   -105.05743     85.91478    435.13724    23.486508    22.142366   0.46897891    435.60622    62.494256   -960.60222 
    2400   -103214.51   -94013.081    223.44466    20724    226343.99    -24.09892   -92.896657    329.40485   -308.80496    435.25862    23.485943    22.141833   0.40828781    435.66691    39.867329   -965.88938 
    2500   -103276.87   -93983.013    225.68924    20724    226459.89    1.0373747    73.867049    70.785558   -141.54048    435.19742    23.493607    22.149058   0.43888754    435.63631    55.496827   -1012.3899 
    2600   -103188.74   -93929.395    224.85104    20724    226332.03    26.220527    104.12435    25.695982   -51.158751    435.30575    23.484052     22.14005   0.38472347    435.69048    49.957901   -1065.9457 
    2700   -103211.42   -93964.261    224.55512    20724    226443.57    3.4067817    65.021474   -113.65811    58.856983    435.18613    23.493065    22.148548   0.44453595    435.63066    70.220362    -1046.879 
    2800   -103240.77   -93985.584    224.75019    20724     226311.2   -63.337555   -113.00945   -139.40403    62.400817    435.02768    23.490475    22.146106   0.52376046    435.55144     90.20854   -1047.9452 
    2900   -103240.29   -93956.607     225.4421    20724     226329.4   -3.2370779    5.3258238    107.92407   -122.96113    435.09261    23.489666    22.145343   0.49129414    435.58391    65.604083   -1055.1563 
    3000   -103241.96   -93934.012    226.03144    20724    226447.12    16.159696    209.14844   -85.364033   -75.305313    435.03408    23.497355    22.152592   0.52056136    435.55464    61.625131   -1070.9152 
    3100   -103180.24   -93912.087    225.06513    20724    226574.86    98.795715    99.021477    121.34052    76.025145    435.47512    23.492076    22.147615   0.30003878    435.77516    59.074229   -1092.0411 
    3200   -103143.92   -93917.515    224.05126    20724    226483.79    9.2813794    135.44729   -413.97058    306.36743    435.25576    23.493272    22.148743   0.40971889    435.66548    61.377961   -1087.9452 
    3300    -103343.6   -93902.513    229.26454    20724     226572.8    50.992907    8.7072021   -23.321425    167.59294    435.34463     23.49549    22.150834   0.36528721    435.70991    69.451776   -1112.5728 
    3400   -103165.07   -93855.739    226.06485    20724    226597.51    -56.38659   -88.790915    255.61538   -335.98424    435.38091    23.495792    22.151119   0.34714706    435.72805    85.187201   -1168.4876 
    3500   -103191.74   -93871.453    226.33113    20724    226554.98    75.970585    34.349177    214.78964   -21.227066    435.25337    23.497029    22.152285   0.41091467    435.66429    66.369119   -1144.1078 
    3600   -103135.47   -93841.578    225.68997    20724    226500.19    31.702815    29.570347   -46.797175    112.33527    435.36731    23.491113    22.146707    0.3539445    435.72126    73.851763   -1180.0744 
    3700   -103161.46   -93808.496    227.12452    20724     226567.5    -24.09735     -28.2351   -264.01031    219.95336     435.1437    23.500639    22.155688   0.46574997    435.60945    74.488294   -1211.2965 
    3800   -103155.39   -93841.104    226.18524    20724    226610.28    2.7731831   -178.05986    82.879244    103.50016    435.19479    23.501478    22.156479   0.44020289      435.635    79.096747   -1186.3921 
    3900   -103150.73    -93794.44    227.20535    20724    226664.55    3.7926751   -166.94849   -134.89069     313.2172    435.45377    23.497301    22.152541   0.31071493    435.76449    75.372299    -1228.928 
    4000   -103079.54   -93788.167    225.62893    20724    226534.66   -12.281823   -36.706278   -36.718368    36.579177    435.22091    23.496851    22.152117   0.42714489    435.64806    54.509459   -1218.9076 
    4100   -103221.18   -93752.353    229.93823    20724    226738.89    65.104459    208.24668   -152.01528    139.08198    435.54547     23.49868    22.153841   0.26486474    435.81034    57.196028   -1259.6628 
    4200   -103148.09   -93770.821    227.71468    20724    226496.79   -65.532476      7.42741   -166.53606   -37.488782     435.1905    23.495708    22.151039   0.44235203    435.63285    50.700468   -1233.5762 
    4300   -103020.65   -93699.397    226.35442    20724    226663.38    8.4426667    31.518876    88.822589   -95.013466    435.49071    23.496244    22.151545   0.29224274    435.78296    58.267956   -1311.1438 
    4400   -103074.49   -93689.925      227.892    20724    226634.12   -92.662825   -102.62264    109.10841   -284.47425    435.34851    23.498564    22.153732   0.36334423    435.71186     49.87526   -1309.9351 
    4500   -103072.82   -93695.463    227.71679    20724    226583.93    50.279564   -44.624125    144.60618    50.856636    435.30188    23.497221    22.152465   0.38666113    435.68854    48.248272   -1309.9649 
    4600   -103070.43   -93651.292     228.7315    20724    226684.87   -42.255078    -63.85183   -74.286306    11.372903    435.35586    23.500997    22.156026   0.35967056    435.71553    49.880808   -1350.3119 
    4700   -103066.15    -93658.78    228.44563    20724     226649.2   -17.545182    49.659641   -215.76047    113.46528    435.22708    23.502624     22.15756   0.42405969    435.65114    65.563034   -1361.6911 
    4800   -103184.17   -93638.621     231.8013    20724    226664.24    -80.80709   -163.75396    49.038881   -127.70619    435.41375    23.498365    22.153544   0.33072306    435.74448    61.429451   -1376.5225 
    4900   -103076.27   -93607.602    229.93419    20724    226666.68   -45.515093   -61.529224    24.842206   -99.858262    435.30167    23.501517    22.156515   0.38676294    435.68844    61.066153   -1409.8055 
    5000    -103021.3       -93646    227.66686    20724    226694.09   -63.111189   -58.249943    239.98299   -371.06662    435.38277    23.500749    22.155791   0.34621749    435.72898    70.654751   -1379.4945 
    5100   -102938.44   -93556.355    227.83172    20724    226757.06    37.789689    47.611706    13.704157    52.053202     435.2546    23.507473    22.162131   0.41030016     435.6649    45.324459   -1444.1573 
    5200   -103020.91   -93547.193    230.05683    20724    226640.13   -33.895367   -98.638757   -67.300591    64.253247    435.52251    23.494182      22.1496   0.27634417    435.79886    55.780638   -1468.3271 
    5300   -102930.46    -93523.01    228.44765    20724    226702.19   -9.1837457   -48.826148    133.00436   -111.72945    435.48969    23.498283    22.153467    0.2927562    435.78244    45.319851   -1482.2274 
    5400   -103037.16    -93535.05    230.74627    20724    226856.34   -33.557087   -73.241466   -93.643294    66.213498    435.55303    23.504562    22.159386   0.26108681    435.81411    57.708387   -1478.8552 
    5500   -103066.08   -93560.144    230.83934    20724    226744.18   -49.565737   -102.16719    -25.44297   -21.087055    435.58186    23.497973    22.153175   0.24667112    435.82853    41.439365    -1441.733 
    5600   -102993.91   -93508.014    230.35269    20724    226687.59   -90.078875    -80.10406   -302.24652    112.11396    435.40242    23.499882    22.154974   0.33639086    435.73881    47.292308   -1498.5838 
    5700   -102980.81   -93536.405    229.34502    20724    226639.19    56.371072    154.74943   -49.007179    63.370968       435.28    23.500677    22.155724   0.39760051     435.6776    51.942074   -1485.2013 
    5800   -102999.47   -93513.968    230.34314    20724    226823.43   -94.467588   -260.90913    153.02135   -175.51498    435.37049    23.507783    22.162423   0.35235713    435.72284    51.720388   -1494.7277 
    5900   -103000.14   -93534.667    229.85663    20724    226852.24    26.871235   -42.948899    88.987743     34.57486    435.58989    23.503354    22.158248     0.242653    435.83255    70.797513   -1500.5319 
    6000   -102943.81   -93533.407    228.51946    20724    226643.56   -27.357891    207.33258   -5.4790688   -283.92718    435.25055    23.501698    22.156687   0.41232449    435.66288    58.818729   -1492.5904 
    6100   -103103.31   -93532.144    232.42318    20724    226796.44    15.985556   -132.46906   -125.10838    305.53411    435.32983    23.507482     22.16214   0.37268558    435.70251    57.047232   -1494.0807 
    6200   -102991.49   -93500.027     230.4878    20724     226764.9   -86.984242   -166.83264   -17.632434   -76.487657    435.64397    23.497371    22.152607   0.21561565    435.85958    82.921388   -1546.6539 
    6300   -102899.39   -93502.497    228.19118    20724    226717.49    19.336891    28.665661   -95.879766    125.22478    435.34683    23.502931    22.157849   0.36418505    435.71101     88.75589   -1555.8049 
    6400   -102999.74   -93488.856    230.95942    20724    226600.73   -36.791078   -146.03439   -51.577105     87.23826     435.3091    23.497897    22.153103   0.38305206    435.69215    88.221492   -1572.7565 
    6500    -102866.6   -93466.309    228.27389    20724    226778.69    49.085917    194.80759   -227.50099    179.95115     435.3569    23.505831    22.160583   0.35915004    435.71605    80.864332   -1586.3154 
    6600   -102938.11   -93472.256    229.86601    20724    226776.11   -42.481283   -109.42123   -123.34138    105.31876    435.52027    23.501289    22.156301   0.27746635    435.79773    93.835585   -1590.0184 
    6700   -102942.34   -93433.747    230.90392    20724    226824.73    14.322206    12.479937    16.238795    14.247885    435.54897    23.503034    22.157946   0.26311705    435.81208    80.286668   -1617.5961 
    6800   -102984.28   -93427.599    232.07146    20724    226731.24   -23.923637     158.3751   -25.397107    -204.7489    435.54528    23.498289    22.153473   0.26495959    435.81024    76.962518   -1621.9482 
    6900   -102932.61   -93403.183    231.40976    20724    226686.93     20.18276   -99.830327    72.229141    88.149467      435.483    23.497673    22.152892   0.29609908     435.7791     52.81972   -1625.6042 
    7000   -102857.36   -93340.788    231.09755    20724    226731.31   -10.102891    59.962548   -28.517842    -61.75338    435.36819    23.503071    22.157981   0.35350435     435.7217     55.57644   -1690.6906 
    7100   -102734.52   -93372.384    227.34717    20724     226768.3    120.54661   -23.268504    51.408264    333.50008    435.30089    23.506805    22.161501   0.38715331    435.68805    74.999965    -1682.118 
    7200   -102940.63   -93389.279      231.942    20724    226629.07     6.612149   -10.235283    39.742995   -9.6712643    435.24389    23.501127    22.156148   0.41565378    435.65955    38.119859   -1628.0125 
    7300   -102906.69   -93335.748    232.41795    20724    226699.99   -67.536824    -165.6945    95.881797   -132.79777    435.22476     23.50532    22.160101   0.42522222    435.64998    33.507661   -1673.8804 
    7400   -102962.72   -93350.598    233.41778    20724    226726.79   -7.8435904    20.778744    164.80234   -209.11186    435.08303    23.510538     22.16502   0.49608642    435.57911    48.870782   -1677.8054 
    7500   -102781.15   -93296.909    230.31231    20724    226680.09    2.5485959    137.87848    -67.93147   -62.301221    435.29228    23.502465     22.15741   0.39146069    435.68374     26.57704   -1712.1539 
    7600   -102867.32   -93271.724    233.01657    20724    226783.52   -4.8578751   -101.71384    104.69701   -17.556792    435.42472    23.504251    22.159094   0.32524169    435.74996    44.202606   -1751.6782 
    7700   -102784.98   -93248.644    231.57754    20724     226709.7   -62.627321    40.878967    117.90014   -346.66107    435.16353    23.507477    22.162135   0.45583544    435.61936    34.543538   -1765.3079 
    7800   -102767.28   -93208.366    232.12588    20724     226853.9    5.3059043    116.61822   0.24691135   -100.94742     435.4655    23.506797    22.161494   0.30485162    435.77035    54.823004   -1824.7875 
    7900   -102799.15   -93226.502    232.45919    20724     226721.3    21.139674    77.309959    289.70588   -303.59682    435.11611    23.509359    22.163909   0.47954259    435.59566    48.263998   -1807.7092 
    8000   -102756.14   -93209.253    231.83371    20724    226831.32    19.564043   -7.2059887    125.82193   -59.923813    435.24623    23.511547    22.165972   0.41448457    435.66072    49.780855   -1823.1154 
    8100      -102758   -93191.094    232.31991    20724    226717.37   -18.763517   -32.381892    141.09626   -165.00491    435.31378    23.503817    22.158684   0.38070879    435.69449    54.236799   -1848.0266 
    8200   -102826.52   -93147.225    235.04918    20724    226734.73     40.09778     84.72759   -130.95081    166.51656    435.20607    23.507626    22.162275   0.43456402    435.64064    47.299111   -1890.5581 
    8300   -102815.69   -93197.184    233.57284    20724     226841.4    72.089353  -0.41271397    83.918365    132.76241    435.30809    23.510399     22.16489   0.38355578    435.69164    56.061448   -1848.7622 
    8400   -102705.68   -93199.454    230.84639    20724    226678.89    28.526432    67.782465    109.15587   -91.359039     435.3775    23.500103    22.155182   0.34884928    435.72635     63.07396   -1854.3865 
    8500   -102827.78   -93150.819    234.99229    20724     226775.1   -92.604443    -13.13509    99.009749   -363.68799    435.46953    23.502606    22.157542   0.30283366    435.77237    58.705135   -1893.8878 
    8600   -102794.08   -93153.232    234.11541    20724    226727.06   -90.540503   -137.65387    168.85272   -302.82037    435.46441    23.500254    22.155325    0.3053971     435.7698    60.609938   -1894.9737 
    8700   -102824.24   -93135.379    235.28141    20724    226843.58     10.59021    145.05094   -67.865133   -45.415176    435.47874    23.505905    22.160653   0.29822798    435.77697    60.087121   -1914.2482 
    8800   -102813.21   -93181.029    233.90502    20724    226876.29   -7.9931876   -55.074756   -144.95128    176.04647    435.58706    23.504677    22.159495   0.24406753    435.83113     67.68751   -1877.2595 
    8900    -102766.2   -93155.903    233.37357    20724    226728.21    33.583962   -122.46042   -12.859386    236.07169    435.61596    23.496225    22.151527   0.22961948    435.84558    75.126445   -1914.5263 
    9000   -102686.82   -93113.246    232.48172    20724    226947.37   -17.194248    7.4758161   -22.142714   -36.915845    435.59088    23.508255    22.162869   0.24215976    435.83304     61.47226   -1938.2248 
    9100   -102799.04   -93127.377    234.86381    20724    226859.69   -97.549195   -57.387416   -5.0510896   -230.20908    435.61154    23.503157    22.158062   0.23183218    435.84337    64.872898   -1926.1223 
    9200   -102749.34   -93127.311    233.65849    20724    226967.59    94.535809    7.5510969    287.77199   -11.715665    435.52149    23.511176    22.165622    0.2768538    435.79835    83.083414    -1951.243 
    9300   -102636.56   -93080.172    232.06431    20724    226946.05    66.656784    114.33946    81.418013    4.2128847    435.67329    23.505964    22.160708   0.20095559    435.87424    50.278116   -1966.0238 
    9400    -102720.6   -93047.687    234.89399    20724    226962.77   -61.050037   -189.98076   -117.94086    124.77151     435.6444    23.507609    22.162259   0.21540192     435.8598    42.219671   -1985.2613 
    9500      -102763   -93057.945    235.67462    20724     226972.2  -0.82851027    139.19297   -93.154216   -48.524287    435.54975    23.510651    22.165127    0.2627231    435.81248    28.610342   -1966.7137 
    9600   -102715.82   -93120.536    233.00908    20724    226800.02   -19.468905   -291.31392    168.51359    64.393614    435.64547     23.49915    22.154284   0.21486288    435.86034    47.429329   -1927.4182 
    9700   -102740.27   -93124.835    233.49828    20724    226831.33    100.00084    129.29711    192.84946   -22.144048    435.59468    23.502142    22.157105   0.24026138    435.83494    55.282849   -1936.4441 
    9800   -102556.14   -93054.383    230.73778    20724    226855.49   -50.456433   -169.87892    28.586854   -10.077236    435.68977    23.500829    22.155867   0.19271609    435.88248    26.371103   -1970.7972 
    9900   -102728.87   -93117.104    233.40931    20724    226753.92    18.533971    102.21305    -13.81702   -32.794119    435.60454    23.497866    22.153073    0.2353317    435.83987     62.53596   -1954.3342 
   10000   -102610.08   -93009.919    233.12744    20724    226865.62   -36.681231   -25.529756   -12.882632   -71.631306    435.48699    23.506825     22.16152   0.29410524    435.78109    45.716494   -2037.5592 
   10100    -102718.4       -93007    235.82873    20724    226548.89   -43.067932   -78.326042    216.80927   -267.68702    435.24177    23.497026    22.152282   0.41671659    435.65848    60.454927   -2064.9339 
   10200   -102757.85   -93016.781    236.54922    20724       226858   -27.671271    123.09191    153.71756   -359.82328    435.49705    23.506158    22.160891   0.28907493    435.78613    73.698862   -2062.9307 
   10300   -102602.23   -92967.118    233.97602    20724    226768.29    11.265713    54.886187   -176.28492    155.19587    435.51315    23.501076      22.1561   0.28102613    435.79417        55.77    -2098.431 
   10400   -102625.17   -92952.901    234.87853    20724    226608.21   -42.299859    83.119522     18.65825   -228.67735    435.42717    23.495099    22.150465   0.32401632    435.75118    46.590636   -2105.9935 
   10500   -102637.69   -92948.635    235.28604    20724    226836.02   -17.845787   -11.206869    -87.85435    45.523858    435.57854    23.502821    22.157745   0.24833186    435.82687    54.128979   -2113.1949 
   10600   -102617.87   -92894.311    236.12389    20724    226660.04   -9.5735768   -70.556284    -137.6246    179.46016    435.50508    23.495683    22.151016   0.28506067    435.79014    29.436475   -2149.0459 
   10700   -102583.36   -92887.365    235.45448    20724    226955.95    5.2732285   -114.09148     246.8125   -116.90134    435.60055    23.508439    22.163042   0.23732498    435.83788    50.066059   -2170.7015 
   10800    -102525.3   -92897.092    233.80858    20724     226797.4    107.52933    31.203346    289.87794     1.506692    435.54173    23.501813    22.156795   0.26673329    435.80847    32.167835   -2153.2389 
   10900   -102618.88   -92885.421    236.36436    20724    226993.42    23.299615    52.049946    76.977284   -59.128384    435.81073     23.50471    22.159526   0.13223746    435.94296    55.993588   -2180.0757 
   11000   -102576.29   -92916.451    234.57651    20724    226848.71    21.388225     14.38395   -166.04436    215.82509    435.62335    23.502269    22.157225   0.22592305    435.84928    65.330958   -2165.1529 
   11100   -102598.17   -92838.768    236.99432    20724    226910.68   -92.921883   -113.83552   -182.72935    17.799221    435.81851    23.500216    22.155289   0.12834741    435.94685    36.814698   -2208.1428 
   11200   -102655.07   -92838.082    238.39279    20724    227076.11   -23.195823   -50.884813    267.03578   -285.73843    436.01438      23.5035    22.158385  0.030407931    436.04479    33.886476   -2204.9901 
   11300   -102423.26   -92806.758    233.52412    20724    226933.56    138.97237   -53.829612    365.71478    105.03193    435.77644    23.502535    22.157475   0.14937934    435.92582    14.723231   -2227.9562 
   11400   -102624.39   -92819.288    238.10422    20724    226985.09   -35.175508    44.191179    129.93508   -279.65278    435.82677    23.503846    22.158711    0.1242149    435.95099    40.894776    -2235.487 
   11500   -102521.59   -92825.749    235.45096    20724    226819.89   -53.454221   -40.417027   -427.98512    308.03949    435.55453    23.502633    22.157567   0.26033507    435.81486    37.671368   -2230.1388 
   11600   -102535.05   -92796.068    236.49847    20724    226987.84   -13.652001   -100.90163    3.5935891    56.352034     435.7259    23.506709     22.16141   0.17465243    435.90055    23.354016   -2241.4989 
   11700   -102563.71   -92829.038    236.39378    20724    226855.21   -8.9981097    72.173716   -206.17241    107.00437    435.75255    23.499121    22.154257   0.16132465    435.91388    25.398372   -2218.7186 
   11800   -102565.46   -92805.583     237.0058    20724    227037.95   -9.6413872   -40.709215   -75.913091    87.698144    435.94858    23.503298    22.158195  0.063308362    436.01189    40.275288   -2253.3536 
   11900   -102483.04   -92821.424    234.61987    20724    226984.29    50.819419   -22.800777    337.61613    -162.3571    435.85765    23.502972    22.157888   0.10877549    435.96642    37.188241    -2238.349 
   12000   -102465.48   -92800.425    234.70324    20724    226956.99    21.437309   -58.111201    18.339871    104.08326    435.65615    23.506992    22.161678   0.20952449    435.86568    25.235583   -2248.2706 
   12100   -102478.06   -92839.896    234.05029    20724    226907.62   -21.461331    70.822515    65.773892    -200.9804    435.62417    23.505299    22.160081   0.22551491    435.84969    34.963099   -2219.9739 
   12200   -102511.96   -92787.953    236.13484    20724    226867.52    14.719164   -124.55899    51.339362    117.37712    435.53706    23.505572    22.160338   0.26906992    435.80613    14.722786   -2253.6686 
   12300   -102524.36   -92801.604     236.1045    20724    227019.66   -45.418265    132.47265   -224.21991   -44.507541    435.41287    23.516805    22.170929   0.33116484    435.74404    37.326515   -2257.8173 
   12400   -102564.06   -92773.263    237.75676    20724    227009.02    16.881361    226.95594    16.376578   -192.68843    435.57604    23.511849    22.166256   0.24958126    435.82562     17.21365   -2269.7876 
   12500   -102465.11   -92754.665     235.8056    20724    226777.56    19.941481     63.82179    32.906735   -36.904081    435.31288    23.506962    22.161649   0.38115915    435.69404     17.80908   -2297.5516 
   12600   -102474.09   -92710.299    237.10101    20724    226868.53    25.649917   -194.69722    128.46997      143.177    435.52872    23.505849      22.1606   0.27323931    435.80196    10.593582   -2331.3852 
   12700   -102455.53   -92716.059    236.51026    20724    226910.75    72.489696    258.95672   -186.21552    144.72789    435.51594    23.508381    22.162987   0.27962819    435.79557    15.347181   -2335.5188 
   12800   -102420.54   -92643.351    237.42636    20724    227040.89    41.788863   -39.767464   -166.04442    331.17847    435.67509    23.510826    22.165292   0.20005523    435.87514    -6.959713   -2380.9907 
   12900   -102363.05   -92660.804     235.6063    20724       226879   -74.719594   -196.61267    -228.2887    200.74259    435.41029    23.509588    22.164125    0.3324557    435.74274    22.030772   -2392.4387 
   13000   -102416.52   -92698.525    235.98873    20724    226899.57    87.143448    139.89508   -126.96663    248.50189    435.53419    23.507309    22.161977   0.27050677    435.80469    12.952052    -2354.306 
   13100   -102405.18   -92705.371    235.54719    20724    226931.88    35.939265   -67.637975    250.71519   -75.259424    435.60464    23.507082    22.161762   0.23528151    435.83992    30.605851    -2362.171 
   13200   -102364.28   -92620.129    236.62396    20724     226883.6   -30.372916   -102.93168    34.972948   -23.160015    435.47904    23.507971      22.1626   0.29808171    435.77712    11.216482   -2425.4525 
   13300    -102472.7   -92669.011    238.06972    20724    226861.48    76.193488    140.89147   -81.981915     169.6709    435.51043    23.505977    22.160721   0.28238333    435.79282    30.376106   -2405.2586 
   13400   -102426.24   -92627.406      237.952    20724    226944.54   -27.062406   -26.489369   -49.555561   -5.1422881     435.6981    23.505216    22.160003   0.18854944    435.88665    13.728044   -2422.8973 
   13500   -102371.56   -92627.845     236.6135    20724    226750.78   -1.5015767   -56.527497    135.77237   -83.749606    435.33223    23.505051    22.159848   0.37148289    435.70372    33.961656   -2449.8637 
   13600   -102440.49    -92610.13    238.71746    20724     226910.7    35.597759     99.97537    158.14172   -151.32381    435.47829    23.509395    22.163943   0.29845382    435.77675    10.122666   -2444.0192 
   13700   -102351.89   -92608.403    236.60795    20724    226804.88    17.795142   -12.021501    134.72998   -69.323049    435.45413    23.504564    22.159389   0.31053288    435.76467    32.817491   -2467.9724 
   13800   -102419.22   -92583.206    238.85479    20724    226891.24   -43.285101   -193.31294     83.27654   -19.818903    435.41107    23.510201    22.164703   0.33206487    435.74314    29.888616   -2487.1486 
   13900   -102389.27   -92538.962    239.20196    20724    226851.89   -52.646816   -146.43727   -104.15703    92.653846    435.43544    23.507504    22.162161   0.31988002    435.75532    19.418827   -2520.9691 
   14000   -102334.22   -92540.441    237.82922    20724    226877.36   -36.262011   -134.23055   -50.928082    76.372596    435.42499    23.509106    22.163671   0.32510732    435.75009    26.845782   -2530.0077 
   14100   -102309.49   -92551.481    236.96061    20724    226936.05   -13.824486   -23.369529    48.073098   -66.177028    435.65221    23.506015    22.160756   0.21149554     435.8637    21.051441   -2511.9412 
   14200   -102394.23   -92543.288     239.2173    20724    226893.45   -40.954819    75.999192   -146.29325   -52.570395    435.53075    23.507085    22.161765   0.27222388    435.80298    17.338255   -2518.9319 
   14300   -102424.91   -92532.945    240.21344    20724    226783.11   -46.048862   -12.698544   -120.33058   -5.1174611    435.44412    23.503706     22.15858   0.31553859    435.75966    29.367027   -2546.3133 
   14400   -102275.97   -92486.103    237.73426    20724    226783.18   -54.314108    23.741002   -39.792324     -146.891    435.44243    23.503756    22.158626   0.31638585    435.75881     19.83662   -2581.8714 
   14500   -102345.67   -92498.024    239.13736    20724    226749.09    -39.18459   -84.888199    101.01918   -133.68475    435.37031    23.503935    22.158796   0.35244316    435.72276    1.9247322   -2556.9234 
   14600   -102346.71    -92529.66    238.39422    20724    226979.15    29.745961   -80.714369   -45.643699    215.59595    435.48627    23.512725    22.167083   0.29446532    435.78073    31.109724   -2552.3365 
   14700   -102221.16   -92499.237    236.08434    20724    226906.37    62.960749    167.11264   -47.409699     69.17931    435.33143    23.513136     22.16747   0.37188654    435.70331    10.464109   -2565.4229 
   14800   -102328.45   -92484.678    239.04313    20724    226732.54   -47.482002   -4.8272343    -40.26062   -97.358153    435.34684    23.503711    22.158584    0.3641796    435.71102    9.4462332   -2579.6682 
   14900   -102296.03   -92458.846    238.88314    20724    226778.16   -4.3653463    90.717297   -242.81153     138.9982    435.29443    23.507491    22.162148    0.3903857    435.68481   -2.8065027   -2593.9786 
   15000    -102312.3   -92496.166    238.37211    20724    226823.64    46.524946   -24.107919    166.77909   -3.0963355     435.6085    23.501371    22.156378   0.23335005    435.84185   -0.0601755   -2562.4539 
   15100   -102349.97   -92500.355    239.18508    20724    226850.55    -8.778045   -111.77671    149.55307   -64.110491    435.37046    23.509189    22.163749   0.35237185    435.72283    12.737504    -2570.725 
   15200   -102389.27   -92481.993    240.58539    20724    226858.25   -29.527572    43.485021   -92.116378   -39.951359    435.32296    23.510871    22.165334   0.37612162    435.69908    11.232646   -2585.8506 
   15300   -102341.61   -92536.421    238.10619    20724       226988    5.8803921   -21.444027   -86.372915    125.45812    435.43972     23.51444    22.168699   0.31773922    435.75746    42.597052   -2562.8857 
   15400   -102278.84   -92478.146    237.99702    20724    226942.52     79.04998     131.3752    -89.42053    195.19527    435.40463    23.513032    22.167372   0.33528643    435.73991    20.216678   -2602.2319 
   15500   -102235.68   -92446.331    237.72159    20724    226938.24   -13.356532    16.021575   -215.65064    159.55947    435.54469    23.509029    22.163598   0.26525595    435.80994    15.580543   -2625.7047 
   15600   -102335.89   -92460.253    239.81693    20724    226720.53    25.101279   -75.934731    168.62412   -17.385554    435.16777    23.507924    22.162556   0.45371467    435.62149    25.864153   -2632.5811 
   15700   -102286.78   -92474.484    238.27877    20724    226855.93    41.697842    313.80108   -184.88321   -3.8243522     435.4091    23.508425    22.163029   0.33305049    435.74215     21.86138   -2612.6639 
   15800   -102326.22   -92403.177    240.96816    20724    226776.71    13.036471   -46.459626   -79.210922    164.77996    435.18002    23.510505     22.16499   0.44758767    435.62761    -7.167385   -2659.5292 
   15900   -102343.64   -92397.137    241.53785    20724     226774.9   -31.530916   -168.33563    83.728422   -9.9855426    435.17438    23.510564    22.165045   0.45041178    435.62479    20.410881   -2689.5467 
   16000   -102252.65    -92380.21    239.73941    20724    226702.44    33.824834    65.645281   -87.843541    123.67276    435.32875    23.502639    22.157574   0.37322648    435.70197    34.691124   -2727.7148 
   16100   -102178.63   -92332.601      239.098    20724     226768.9    75.095932     30.00611    171.84483    23.436852    435.58817    23.499083    22.154221   0.24351587    435.83168    24.203527   -2765.1997 
   16200   -102155.85   -92301.668    239.29604    20724     226613.8    25.353213   -12.709708   -23.215129    111.98448    435.19043    23.501778    22.156762   0.44238252    435.63282      17.9252   -2791.2144 
   16300   -102102.84   -92281.324     238.5028    20724    226672.66    58.333084   -45.378923    152.34548    68.032691    435.23111    23.503732    22.158604   0.42204588    435.65315    18.357338    -2814.232 
   16400   -102164.56   -92307.457    239.36688    20724    226725.34   -10.476936   -33.280338    160.27764   -158.42811    435.37887    23.502474    22.157418   0.34816366    435.72704    2.8498513   -2769.1353 
   16500   -102278.99   -92262.334    243.24153    20724    226638.61   -66.721094    55.427342   -191.87579   -63.714839      435.075    23.506182    22.160914   0.50009926     435.5751    8.1440893   -2820.4425 
   16600    -102156.5   -92279.693    239.84541    20724    226712.93   -27.060516    84.481498   -87.415581   -78.247466    435.04034    23.510973     22.16543   0.51742769    435.55777    7.5099562   -2802.2685 
   16700   -102121.78   -92262.519    239.41935    20724    226790.45    32.404724   -209.13122   -29.597299    335.94269    435.09872    23.513414    22.167732   0.48823942    435.58696    8.1531659    -2820.369 
   16800   -102212.07   -92215.463    242.75469    20724    226777.19   -88.192025      79.5563    59.332711   -403.46509    435.21258    23.509651    22.164184   0.43130846    435.64389    20.750853   -2878.2577 
   16900   -102130.72   -92237.736    240.23823    20724    226674.88   -22.903484   -11.595587    68.445505   -125.56037    435.38821    23.499606    22.154714   0.34349517     435.7317      30.7492   -2871.0846 
   17000   -102050.53   -92226.671    238.55968    20724    226865.12     17.25375    35.259858   -1.8589304    18.360322    435.22029       23.514    22.168284   0.42745446    435.64775    14.008195   -2863.5389 
   17100   -102152.12   -92235.394    240.81478    20724    226850.22    -6.261765   -35.611175   -31.153205    47.979086    435.19356     23.51395    22.168237   0.44082052    435.63438    25.615439   -2866.5145 
   17200   -102115.25   -92238.712    239.83875    20724    226703.12    71.307732    119.65273    101.32984   -7.0593758    435.29043    23.503709    22.158582   0.39238526    435.68281    35.817822   -2883.6394 
   17300   -102190.48   -92227.274    241.94357    20724    226620.68   -40.140885   -22.488354   -60.913634   -37.020667    435.34663    23.497918    22.153123   0.36428568    435.71091    36.111739   -2892.3698 
   17400   -102179.32   -92195.409    242.44621    20724    226938.69   -16.618629   -97.333407   -227.27441    274.75194    435.38563    23.513347    22.167668   0.34478422    435.73042     35.04725   -2917.7321 
   17500   -102174.52   -92189.269    242.47883    20724    226610.06   -31.034659   -88.812333    81.475326   -85.766968    435.10431     23.50391    22.158772   0.48544593    435.58975    52.424428   -2950.4596 
   17600    -102066.5   -92196.301    239.68501    20724    226784.34   -11.091909   -132.56793    66.648422     32.64378    435.37848    23.505542     22.16031   0.34835907    435.72684    27.954051   -2915.6939 
   17700   -102041.79   -92140.059    240.45073    20724    226673.84   -105.07919    65.740625   -86.588841   -294.38935    435.47626    23.497176    22.152424   0.29947081    435.77573    31.722884   -2975.3563 
   17800   -102049.87   -92155.705      240.267    20724     226678.1    12.453826   -30.904993   -18.595683    86.862153    435.49431     23.49691    22.152172   0.29044347    435.78476    15.606216     -2949.33 
   17900   -102061.93   -92128.229    241.22702    20724    226794.31    21.401766    -70.00691    105.41552    28.796683    435.30763    23.507971      22.1626   0.38378295    435.69142    8.9224543   -2971.5558 
   18000   -102111.86   -92167.122    241.49495    20724    226551.61    -110.9699   -128.84173   -135.48624   -68.581724    435.32205       23.495    22.150372   0.37657274    435.69863    5.7848452   -2929.5477 
   18100    -101988.6   -92127.113    239.47326    20724    226678.55    5.2158447   -111.62285    73.156777    54.113609    435.46065    23.497841    22.153051   0.30727313    435.76793    18.242988   -2983.0428 
   18200   -101999.95   -92121.101    239.89492    20724     226748.5    67.075264   -33.314368    314.64077   -80.100613    435.50701    23.500216    22.155289   0.28409463    435.79111    36.817777   -3009.3931 
   18300   -102098.16   -92112.417    242.49081    20724    226666.61   -87.019822   -86.400354   -257.78764    83.128533    435.23054    23.503434    22.158323   0.42233083    435.65287    10.528744   -2991.8202 
   18400   -101909.27   -92102.817    238.13699    20724    226588.78    89.489865    53.063039    147.48205     67.92451    434.71998    23.513193    22.167524   0.67760913    435.39759  -0.67331725   -2998.4412 
   18500   -101955.37   -92052.532    240.47755    20724    226771.46    58.258596    88.603037    35.331286    50.841465    435.09222    23.512606     22.16697   0.49149056    435.58371  -0.30073451   -3045.1044 
   18600   -101991.12    -92063.51    241.07906    20724    226418.94    2.9463924   -124.85008     288.2204   -154.53114    435.03482    23.495873    22.151195   0.52018984    435.55501   -22.155858   -3019.1729 
   18700   -101960.76   -92022.751     241.3317    20724    226692.14    19.892574    24.513242    21.166199    13.998282    435.30981    23.502617    22.157553   0.38269638     435.6925   -36.891302   -3040.4847 
   18800   -101950.18    -91970.88    242.33438    20724    226664.89    11.260297     72.29993    108.64668   -147.16572    435.06714    23.507757    22.162399   0.50403231    435.57117   -18.311425   -3111.1342 
   18900   -101983.05   -91953.679    243.55014    20724    226711.43     104.8767    48.912617    87.154341    178.56314    435.34182    23.502753    22.157681   0.36669086    435.70851   -9.1926656   -3144.8186 
   19000   -101903.71   -91955.118    241.58862    20724    226781.93   -96.286945    12.825806   -234.51169    -67.17495    435.32156    23.506954    22.161641   0.37681821    435.69838   -11.291374   -3128.4265 
   19100   -101897.26   -91953.122    241.48043    20724    226782.54    20.144045    -173.6191   -108.26849    342.31972    435.43524    23.503916    22.158778   0.31997799    435.75522   -7.4458205   -3141.6425 
   19200   -101842.55   -91912.186    241.14597    20724     226551.1   -22.086034   -224.31763    47.501411    110.55812    434.95182    23.504972    22.159773   0.56168888    435.51351   -8.1344336   -3187.4638 
   19300   -101784.98   -91888.827    240.31526    20724    226662.16   -24.171339   -18.852004     61.12964   -114.79165    435.18033    23.504558    22.159383   0.44743365    435.62777   -18.066416   -3197.1946 
   19400   -101869.82   -91867.726    242.88771    20724    226546.82   -45.989774    -146.6232   -61.856386    70.510267    435.22798    23.497291    22.152532   0.42360993    435.65159   -39.304558   -3199.9008 
   19500   -101976.58   -91864.936      245.548    20724    226508.21     27.24766    28.149004    79.271639   -25.677663    434.93711    23.503144    22.158049   0.56904739    435.50615    -14.54948   -3235.9779 
   19600   -101833.63   -91871.837    241.90905    20724     226546.4    5.9114755    134.36749   -37.114182   -79.518879     434.9933    23.503607    22.158486   0.54094807    435.53425   -15.006466    -3226.472 
   19700   -101936.88    -91846.51    245.03154    20724    226601.07    -101.8129   -296.80129    53.085382   -61.722793    435.17145    23.501631    22.156623   0.45187479    435.62333   -12.624066    -3248.274 
   19800   -101803.18   -91837.641    242.00015    20724    226452.04    39.019459    130.57614    13.219879   -26.737647    434.86163    23.502269    22.157224   0.60678269    435.46842   -5.4340402   -3276.5332 
   19900   -101807.21   -91766.368    243.82865    20724    226548.07    59.664341    79.177683    34.872635    64.942705    435.18176    23.498603    22.153769   0.44672056    435.62848   -19.419253   -3333.1583 
   20000   -101782.97   -91818.362    241.97748    20724    226429.69   -38.840475   -102.28179    -101.2592    87.019564    434.94003    23.498991    22.154134   0.56758499    435.50762   -27.884472   -3272.2526 
   20100   -101771.36   -91811.912    241.85233    20724    226545.69     30.64558    38.627654    181.17027   -127.86119    435.26034    23.496359    22.151653    0.4074293    435.66777  -0.11935984   -3307.3595 
   20200   -101786.16   -91833.957    241.67623    20724     226253.6   -36.676462   -12.298425    -295.9232    198.19224    434.82619    23.492927    22.148417   0.62450491     435.4507   -3.9764988   -3287.7041 
   20300   -101674.43   -91769.962    240.51697    20724    226368.22    58.591223      9.86409   -15.062254    180.97183    434.60428    23.504875    22.159682   0.73545924    435.33974   -30.744563   -3324.2262 
   20400   -101741.26   -91729.962     243.1114    20724    226262.44   -139.52886   -131.85478   -67.307483   -219.42432    434.52744     23.50146    22.156462    0.7738776    435.30132   -27.764386   -3366.1045 
   20500   -101818.94   -91732.309    244.94065    20724    226514.44   -20.173186   -48.756381    196.56945   -208.33263    434.78704    23.507523    22.162178   0.64407875    435.43112   -7.3454884   -3384.6609 
   20600   -101741.15    -91725.69    243.21252    20724    226448.44     27.70239   -61.901215   -128.06106    273.06945    434.55481    23.510378    22.164869   0.76019587      435.315   -13.683556   -3389.1697 
   20700   -101770.42   -91722.672    243.99638    20724    226501.47   -42.413628   -7.4599164   -208.31202    88.531051    434.62762     23.51116    22.165607    0.7237915    435.35141   -4.9776266   -3399.0655 
   20800   -101686.95    -91744.73    241.43386    20724     226281.8    6.2367248    -66.47852   -103.87633    189.06502    434.34926    23.507286    22.161955   0.86297236    435.21223    -11.56377   -3377.7773 
   20900   -101724.89   -91722.595    242.89274    20724    226318.19   -30.117975   -66.705328    278.40535   -302.05395    434.24597    23.511971    22.166372   0.91461266    435.16059   -4.6757114   -3406.4203 
   21000   -101734.09    -91723.51    243.09391    20724    226369.89    133.48773     193.2987    179.21478    27.949729    434.24026    23.514811    22.169049   0.91746893    435.15773   -35.854545   -3383.1282 
   21100      -101688   -91747.654    241.38828    20724    226382.19    58.171892   -4.6254599   -182.62949    361.77063    434.33238    23.512956      22.1673   0.87141228    435.20379   -21.264237   -3368.6057 
   21200   -101659.67   -91728.015    241.17731    20724    226315.93    31.133676    19.396154   -29.473326     103.4782    433.94346    23.520048    22.173986    1.0658704    435.00933   -29.678691   -3381.3976 
   21300   -101685.14   -91710.268    242.22688    20724    226429.11   -30.265426    125.61766    13.296528   -229.71046      434.205    23.518842    22.172849       0.9351     435.1401   -18.936694   -3406.2466 
   21400   -101755.34   -91688.913    244.44999    20724    226385.56   -70.832439   -171.74539     261.1895   -301.94143    434.22882    23.515935    22.170109   0.92318963    435.15201   -25.511848   -3421.6504 
   21500   -101763.34    -91683.81    244.76814    20724    226505.97   -30.695683   -47.247762     222.8005   -267.63979    434.43831    23.516516    22.170657   0.81844429    435.25676   -34.228352    -3416.037 
   21600   -101755.63   -91739.441    243.23007    20724     226261.8     77.89793     14.42431    87.896079     131.3734     434.3269    23.506852    22.161545   0.87415103    435.20105   -15.604982   -3393.4187 
   21700   -101796.25   -91749.716    243.96709    20724    226426.23    132.75866    148.73379    241.44986    8.0923193    434.57185    23.508764    22.163348   0.75167365    435.32353   -20.748254   -3378.8738 
   21800   -101682.87   -91716.214    242.02719    20724    226473.06    33.668968    120.96926   -303.21668    283.25432    434.44501    23.514626    22.168875   0.81509391    435.26011   -42.824092   -3383.9257 
   21900   -101710.26   -91680.847    243.55121    20724    226387.65   -57.684887   -111.36225   -140.30053    78.608126    434.26534    23.515055    22.169279   0.90493102    435.17027   -46.933205   -3414.1963 
   22000   -101669.05   -91684.509    242.46147    20724    226530.81    25.587003    74.563727    95.348286   -93.151004    434.27544    23.522216     22.17603   0.89988174    435.17532   -52.316342   -3404.4759 
   22100    -101702.4   -91743.438    241.84033    20724    226322.16   -32.312454   -113.66493    53.378985   -36.651417    434.26809    23.511579    22.166002   0.90355336    435.17165   -33.689015   -3369.3972 
   22200   -101769.97   -91688.346    244.81921    20724    226469.85    10.415865   -23.315142    276.07963   -221.51689    434.49506    23.513105    22.167441   0.79006861    435.28513   -49.294768   -3409.2729 
   22300   -101602.81   -91650.095    241.68866    20724    226540.45   -15.338258    92.890136   -20.497968   -118.40694    434.31827    23.521556    22.175408   0.87846495    435.19674   -47.842996   -3444.9384 
   22400   -101724.78   -91661.164     244.3819    20724     226520.3    20.787064    51.083487    117.18445   -105.90675    434.22081    23.523149     22.17691   0.92719711      435.148   -49.485831    -3435.845 
   22500   -101673.16   -91662.656    243.09193    20724    226381.99   -8.2524611    46.858381   -49.463194    -22.15257    434.47403    23.509113    22.163677   0.80058641    435.27461   -29.251509     -3459.32 
   22600   -101646.28   -91659.781    242.50913    20724    226270.39    27.196032    5.3990465   -116.61909    192.80814    434.33644     23.50704    22.161723   0.86938229    435.20582   -29.657468   -3467.1676 
   22700   -101550.02   -91606.987    241.45366    20724    226551.76    74.481979    252.98215    184.82836   -214.36458    434.53887    23.516171    22.170331   0.76816383    435.30704   -19.769135   -3526.2391 
   22800   -101751.16   -91678.751    244.59539    20724    226454.14    -10.27685    21.769947     58.70399   -111.30449    434.74686     23.50548    22.160252   0.66416834    435.41103    1.2923418    -3476.929 
   22900   -101695.55   -91636.905    244.26116    20724    226313.57   -1.4487734   -103.95865    182.97523   -83.362903    434.45079    23.506189     22.16092   0.81220635    435.26299   -19.950452    -3502.425 
   23000   -101717.33   -91621.836    245.15584    20724     226489.2    60.529304    116.17494   -40.599717    106.01269    434.37383    23.517391    22.171481   0.85068552    435.22451   -23.427274    -3512.114 
   23100   -101612.14   -91633.995    242.30623    20724     226303.2   -84.658633   -81.092233   -404.17015    231.28648       434.43    23.506212    22.160942   0.82260118     435.2526   -14.464026   -3507.2831 
   23200   -101607.56   -91539.778    244.48291    20724    226470.49    40.143921    46.181471   -113.10109    187.35138    434.18257    23.521598    22.175448   0.94631518    435.12888    -49.05204   -3569.5039 
   23300   -101596.99   -91556.448    243.82151    20724    226458.23    62.888666    72.922851    193.85535   -78.112203    434.35526    23.516286    22.170439   0.85997004    435.21523   -52.579373   -3551.2227 
   23400   -101654.21   -91547.903     245.4186    20724    226534.39   -25.796629   -118.43634   -148.72885    189.77531    434.39632    23.519128    22.173119   0.83944152    435.23576    -50.53713   -3556.2515 
   23500   -101624.98   -91565.238    244.28764    20724    226517.03     36.81147    107.96661   -14.332677    16.800478    434.47663    23.516053     22.17022   0.79928266    435.27592   -49.562931   -3545.5414 
   23600   -101485.27   -91596.946    240.12505    20724    226299.22    94.898825   -8.7166141    239.99966    53.413431    434.10873    23.514702    22.168947   0.98323485    435.09197   -40.516162   -3530.7622 
   23700   -101705.36   -91574.296    246.01972    20724    226503.19    -30.80642   -16.278807    -206.8467    130.70624    434.22465    23.522157    22.175974   0.92527409    435.14993   -48.991256   -3536.6163 
   23800   -101707.84   -91607.786    245.26659    20724    226275.44    39.850649   -25.062675    56.834304    87.780318    434.21528    23.510582    22.165062   0.92995878    435.14524   -38.355898   -3524.3579 
   23900   -101630.42   -91564.279    244.44316    20724    226466.84    -64.06966   -101.77677    83.641403   -174.07361    434.18622     23.52131    22.175176   0.94449125    435.13071   -60.898546   -3534.3598 
   24000   -101592.43   -91485.316    245.43817    20724    226370.11   -47.809556   -17.102882   -84.023972   -42.301814    434.00936    23.521077    22.174956     1.032922    435.04228   -75.919525   -3602.3541 
   24100    -101630.3   -91501.537    245.96379    20724    226314.01    18.278985   -105.11382    49.266226    110.68454    434.06888     23.51655    22.170688    1.0031577    435.07204    -59.09334    -3610.693 
   24200   -101549.91   -91516.853    243.63969    20724    226387.13    16.124108    18.438124    29.414741   0.51945795    434.38241    23.511859    22.166266   0.84639639     435.2288   -74.141982   -3579.4399 
   24300   -101628.67   -91501.867    245.91621    20724    226359.45   -26.526279   -104.11472   -84.851588    109.38747    434.63864    23.503491    22.158376   0.71827804    435.35692    -68.58709   -3598.9657 
   24400   -101537.71   -91498.686    243.78453    20724       226281   -15.442252   -112.59336    122.23795   -55.971344    434.61272    23.500118    22.155197   0.73123757    435.34396   -69.722915   -3605.1554 
   24500   -101663.36   -91433.491      248.419    20724     226565.6     3.946442    120.67622    -69.21864   -39.618257    434.32181    23.522766    22.176548   0.87669387    435.19851   -87.755131   -3647.6322 
   24600   -101601.87   -91478.017    245.84454    20724    226565.39    27.622157   -20.794042   -51.223859    154.88437    434.68324    23.512973    22.167317   0.69598064    435.37922   -63.835295   -3632.4946 
   24700   -101579.91   -91433.455    246.39352    20724    226479.02   -28.106695   -34.726794   -228.66724    179.07395    434.73863    23.506993    22.161679   0.66828407    435.40692   -70.957497   -3670.1083 
   24800   -101538.13   -91433.857    245.36913    20724    226327.43    30.382897   -32.594232    17.880631    105.86229    434.21373    23.513325    22.167648   0.93073617    435.14446   -71.870837   -3675.6545 
   24900   -101494.77   -91421.868    244.60726    20724    226488.97    46.276621    200.21823   -128.69927     67.31091    434.47268    23.514703    22.168947   0.80126093    435.27394    -75.43695   -3679.6359 
   25000   -101579.82   -91442.123    246.18074    20724    226582.47    27.876699   -47.492882    53.356632    77.766345    434.54083    23.517712    22.171784   0.76718257    435.30802   -84.055859   -3651.2156 
   25100   -101505.28   -91408.788    245.18008    20724    226346.25    16.311324   -140.82873   -81.942729    271.70543    434.54182    23.505423    22.160199    0.7666909    435.30851   -75.481073   -3698.8917 
   25200   -101499.18   -91398.087    245.29178    20724    226534.09    38.204097    44.478877     122.0236   -51.890182    434.25474    23.522946    22.176719   0.91022942    435.16497   -56.886999   -3726.2914 
   25300   -101429.26   -91313.442    245.64949    20724    226482.24    3.9463536    49.376027    66.726849   -104.26382    434.36454    23.517281    22.171378   0.85533049    435.21987   -87.357465   -3780.9446 
   25400   -101474.75   -91316.548    246.67878    20724    226558.28   -19.588349   -108.60687      9.47119    40.370638    434.26826    23.523836    22.177557   0.90347094    435.17173   -93.041957   -3769.0103 
   25500   -101384.12   -91303.063    244.80525    20724    226153.95    23.618847   -72.953036    33.608172     110.2014    434.16817    23.505544    22.160313   0.95351366    435.12169   -107.18888   -3783.8386 
   25600   -101425.04   -91315.746    245.49097    20724    226502.97   -40.021133   -85.430479   -154.31877    119.68585     434.2648    23.521058    22.174939   0.90520136       435.17   -97.455876   -3768.3931 
   25700   -101415.77   -91343.983    244.58018    20724    226323.85    25.986279   -74.738636    27.774429    124.92304    433.96725    23.519815    22.173767    1.0539773    435.02122   -76.287379   -3770.7863 
   25800   -101400.78   -91289.681    245.53477    20724    226255.13    67.867011    54.099334    22.469178    127.03252    433.92909    23.517278    22.171375    1.0730543    435.00215    -99.82246    -3809.095 
   25900   -101461.77   -91299.662     246.7736    20724    226368.79   0.33029808   0.80370109   -61.050319    61.237512    433.97894    23.521833    22.175669    1.0481312    435.02707   -84.815265   -3807.2205 
   26000   -101424.11   -91281.657    246.29628    20724    226221.44    23.530433   -48.411193    203.93083   -84.928343     434.0868    23.511255    22.165696   0.99420038      435.081   -86.640323   -3831.3383 
   26100   -101381.04   -91291.403    245.01376    20724    226159.11    40.937542    57.657501    103.34938   -38.194256    433.91892    23.512563    22.166929    1.0781415    434.99706   -88.682701   -3823.5754 
   26200   -101425.36   -91268.195    246.65363    20724    226113.42   -37.457535    88.576079   -2.5997956   -198.34889    433.79673    23.513498    22.167811    1.1392356    434.93596   -94.942203   -3839.3579 
   26300   -101379.74   -91253.982    245.89087    20724    226214.61    33.651398   -31.512143   -39.342718    171.80905    433.93077    23.515126    22.169346    1.0722136    435.00299   -102.82472   -3846.7894 
   26400   -101345.75   -91249.809    245.16669    20724    226134.55    71.041915    61.059474    55.505642    96.560629    433.84887    23.513184    22.167515    1.1131669    434.96203   -90.829618   -3867.9509 
   26500   -101387.43   -91240.452    246.40617    20724    226132.83    10.046304   -69.801739   -51.878624    151.81928    433.87803    23.512304    22.166686    1.0985836    434.97662   -84.487632   -3881.0268 
   26600    -101365.3   -91192.789    247.02624    20724    226246.79    148.52902    282.12957    20.832914    142.62458    433.76434     23.52131    22.175176    1.1554293    434.91977   -101.65764   -3916.9508 
   26700   -101266.07   -91152.007     245.6068    20724     226266.7    52.328264    77.960238   -141.14445      220.169    433.81535    23.520962    22.174848    1.1299227    434.94528   -116.00476   -3938.7262 
   26800   -101328.81    -91162.85    246.86718    20724    226187.45    46.552509   -32.751991    121.89617    50.513343    434.19749    23.506492    22.161206   0.93885737    435.13634   -116.11315   -3932.5909 
   26900   -101276.99   -91194.593     244.8378    20724    226173.12   -7.2059514    41.039192    10.786598   -73.443644    434.13247    23.507507    22.162163   0.97136709    435.10383   -80.679315   -3935.4119 
   27000   -101394.92   -91205.894    247.42728    20724    226339.85    27.766564     12.77727    122.11793   -51.595508    434.25337    23.512896    22.167244   0.91091317    435.16429   -92.416801   -3910.5273 
   27100   -101483.21   -91249.761    248.50601    20724     225904.9   -151.22141   -70.685132   -119.08709     -263.892    433.88229    23.500337    22.155403    1.0964565    434.97874   -75.486799   -3888.5311 
   27200    -101415.3   -91209.572    247.83291    20724    226411.49   -30.442237    68.081927   -309.95759    150.54895    434.23402    23.517141    22.171246   0.92059135    435.15461   -60.446338   -3938.5292 
   27300   -101396.22   -91224.077    247.01736    20724     226090.7    41.759732    119.04002    3.2400591    2.9991199    433.93166    23.508661    22.163251    1.0717676    435.00343   -53.820664   -3943.9556 
   27400    -101285.1   -91248.338    243.72974    20724     226416.1    154.77615    271.69235    438.81896   -246.18285    434.36842    23.513742    22.168041   0.85339086    435.22181   -45.878911   -3924.3083 
   27500   -101334.97    -91218.92    245.65503    20724    226257.24    -20.50824   -50.161755   -111.73678    100.37381    434.26067    23.508407    22.163012    0.9072631    435.16794   -53.945719    -3943.069 
   27600   -101443.22   -91229.437    248.02847    20724    226293.98   -12.160696   -92.057532   -13.627875    69.203317     433.9339    23.519166    22.173155    1.0706503    435.00455   -49.431141   -3938.3614 
   27700   -101256.99   -91204.761    244.10538    20724    226170.75    19.701902    90.720687   -117.49613    85.881146    433.74613    23.517851    22.171915    1.1645342    434.91067   -42.773147   -3974.1226 
   27800   -101353.24   -91244.293    245.48249    20724    226275.18    32.642273    139.89912   -75.198316    33.226016    434.23396    23.510063    22.164572   0.92061766    435.15458   -42.488734   -3934.8422 
   27900   -101243.83   -91154.713      245.001    20724    226274.76    99.521801   -37.409166    143.02378    192.95079    433.87102    23.519872     22.17382    1.1020898    434.97311   -71.699346   -3999.6558 
   28000   -101268.51   -91132.561    246.13827    20724     226250.4    15.953125    178.15298    93.773916   -224.06752    433.89818     23.51787    22.171933    1.0885118    434.98669   -88.683792   -4003.1193 
   28100   -101316.66   -91170.049    246.39715    20724    226322.84   -10.094164    2.0804876    87.429788   -119.79277    434.05596    23.517359    22.171451      1.00962    435.06558   -85.284931   -3968.2408 
   28200   -101299.61   -91124.156    247.09768    20724     226356.7   -39.151694   -167.17087    40.505377     9.210414    434.02785    23.519879    22.173827    1.0236736    435.05153   -101.98693   -3995.4715 
   28300   -101291.05   -91116.658    247.07191    20724    226351.44    67.284806   -31.925356   -281.64053     515.4203    433.94769    23.521779    22.175618    1.0637546    435.01145   -104.42238   -4007.9989 
   28400   -101369.37   -91063.352    250.26818    20724    226359.52    -114.7078    38.401064   -188.80334   -193.72111    433.96469    23.521737    22.175579    1.0552558    435.01994   -123.76818   -4033.9314 
   28500   -101208.66   -91051.476    246.65406    20724    226273.13    36.563249    167.67305    64.999864   -122.98316    433.87966    23.519553    22.173519    1.0977676    434.97743    -84.66914   -4096.1438 
   28600   -101295.28   -91058.838    248.57875    20724    226346.65    22.782246   -165.99542    187.30419    47.037976    434.03386    23.519195    22.173182    1.0206687    435.05453   -94.604843   -4077.3715 
   28700   -101280.94   -91040.863    248.66696    20724    226474.95   -56.178437    165.09704   -231.70756    -101.9248    434.11658    23.523618    22.177352   0.97931123    435.09589   -105.53808   -4077.4398 
   28800   -101250.25   -91035.628    248.04889    20724       226071    15.508134    48.560103   -38.420183    36.384482    433.80328    23.511115    22.165564    1.1359586    434.93924   -123.86769   -4082.1517 
   28900   -101239.13   -91061.022    247.16198    20724    226401.13    24.841084   -20.917721    60.071712     35.36926    433.85316    23.526923    22.180468    1.1110208    434.96418   -104.67163   -4065.9563 
   29000   -101324.06   -91073.122    248.93072    20724    226173.64   -51.036272   -144.30075   -56.231694     47.42363    433.91075    23.513539     22.16785    1.0822248    434.99298   -91.627783   -4071.9031 
   29100   -101245.25   -91059.756    247.34149    20724    226129.52    50.585967  -0.40495654    228.22773   -76.064872     433.7315    23.516103    22.170267    1.1718489    434.90335   -121.21583   -4060.6481 
   29200   -101283.48   -91040.571    248.73566    20724    226079.45   -50.272089   -33.634559    -306.7724    189.59069    433.86038    23.510007     22.16452     1.107411    434.96779     -128.136   -4071.4811 
   29300   -101218.62   -91020.545      247.647    20724    226197.03    107.11426    44.155739    164.42791    112.75914     434.0171    23.511874     22.16628    1.0290512    435.04615   -111.54007   -4113.0938 
   29400   -101315.69   -91038.307    249.57284    20724    225985.51   -74.358017   -192.28138    199.92693    -230.7196    433.66004    23.510551    22.165033    1.2075813    434.86762   -115.02115   -4090.6516 
   29500   -101259.68   -91043.585    248.08465    20724    226295.88    21.353489    179.71656     65.13227   -180.78837     433.9679    23.518344    22.172379    1.0536481    435.02155   -110.55322   -4088.6971 
   29600   -101146.96   -91000.036    246.40486    20724    226117.63    27.263084   -136.34255    95.653782    122.47802    433.51508    23.521354    22.175218    1.2800622    434.79514   -108.87993   -4139.0643 
   29700   -101230.61   -90971.532    249.12845    20724    226055.24   -24.066914    107.86972   -307.40961    127.33915    433.91186    23.507354    22.162019    1.0816687    434.99353   -109.48551   -4168.2038 
   29800   -101199.87   -90975.459    248.28644    20724    226116.11    -27.39203   -106.42403   -15.083116    39.331052    434.02866    23.507355    22.162019    1.0232677    435.05193   -108.07682    -4164.656 
   29900   -101086.09   -90960.704    245.88171    20724    226035.07    93.539085   -81.625788    527.50348   -165.26044    433.98159    23.504417    22.159249     1.046807    435.02839    -121.2859   -4175.4946 
   30000   -101086.06   -90929.725    246.63335    20724    226126.55   -79.180536   -80.047742   -194.50373    37.009859    433.64113    23.518399    22.172432    1.2170331    434.85817   -108.54109   -4209.3924 
   30100   -101223.77   -90950.588    249.47083    20724    226303.64    27.251832   -58.302185   -136.88426    276.94194      433.913    23.520235    22.174162    1.0810988     434.9941    -110.3822   -4189.8411 
   30200   -101201.78   -90921.268     249.6489    20724    226054.23   -38.376473    145.05396   -233.91662   -26.266757    434.09923    23.502228    22.157186   0.98798399    435.08722   -112.83365   -4220.9091 
   30300   -101160.89    -90897.65    249.22953    20724    226168.75    68.768979    -100.7556    127.48104     179.5815    434.15594    23.506645     22.16135   0.95962859    435.11557   -124.26326   -4236.1457 
   30400   -101166.49   -90928.054    248.62717    20724     226424.9    66.176426    9.8084443     161.2929    27.427934    434.23069    23.517928    22.171987   0.92225466    435.15295    -132.4667   -4188.7832 
   30500   -101159.82   -90874.388     249.7684    20724     226292.4    22.238521    35.275849   -50.793041    82.232756    434.28004     23.50971     22.16424    0.8975815    435.17762   -136.00257   -4243.9221 
   30600   -101194.41   -90869.082    250.73715    20724    226384.64   -71.703913    34.182842   -128.50111   -120.79348    434.20753    23.516464    22.170607   0.93383481    435.14137   -119.76684   -4259.3979 
   30700   -101130.76   -90889.248    248.70169    20724    226302.81    15.311764    107.30889    214.79411    -276.1677    434.49853    23.504339    22.159176    0.7883371    435.28686   -124.92012   -4240.5802 
   30800   -101098.31    -90841.88    249.06408    20724    226454.57   -57.779121   -146.77086   -217.64352    191.07702    434.74659    23.505509     22.16028   0.66430507    435.41089    -134.5576   -4269.8382 
   30900   -101071.49   -90874.845    247.61218    20724    226606.16    15.949261   -47.917363   -103.18188    198.94702    434.91114    23.508927    22.163501   0.58202891    435.49317   -105.78222   -4266.8763 
   31000   -101144.05   -90848.986     250.0021    20724    226669.15   -83.407223   -242.84154    16.817167   -24.197299    434.67609     23.51855    22.172574   0.69955409    435.37565   -110.75155   -4282.9032 
   31100   -101077.01   -90814.926    249.20147    20724    226375.51    42.076615    -9.935289    233.91759   -97.752459    434.34178    23.512355    22.166733   0.86670801    435.20849    -113.1017   -4330.6835 
   31200   -101144.12   -90860.301    249.72921    20724    226282.68   -26.555731   -98.396814   -20.046544    38.776165    434.43966    23.504885    22.159691   0.81776751    435.25743   -90.610535   -4307.9209 
   31300   -101100.69   -90848.007    248.97306    20724    226273.92    26.063731   -156.59098     104.9912    129.79098    434.16629    23.511829    22.166237   0.95445546    435.12074     -106.123   -4307.6409 
   31400   -101056.36   -90905.589    246.49834    20724    226292.32    17.220447    -83.62613    149.01245   -13.724981     434.0181    23.516799    22.170923    1.0285512    435.04665   -86.158919   -4269.8811 
   31500   -101137.82   -90881.409    249.06349    20724    226130.31    27.048771     63.54501    57.632899   -40.031596    433.86998    23.512391    22.166768    1.1026105    434.97259   -95.918704   -4292.2398 
   31600   -101193.92   -90898.069    250.02131    20724    226242.48    41.740421    8.2487845    134.71832    -17.74584    433.80353    23.520024    22.173963    1.1358362    434.93936    -95.34391   -4275.1403 
   31700   -101164.48   -90838.567    250.75145    20724    226266.52   -43.098267   -134.10673   -99.169677    103.98161    433.81846    23.520868     22.17476      1.12837    434.94683   -117.47546   -4309.2918 
   31800   -101139.47   -90853.489     249.7816    20724    226088.71    65.132488   -121.07878    233.53485    82.941395    433.67448    23.515527    22.169724    1.2003596    434.87484   -134.03841   -4287.8164 
   31900   -101113.56   -90897.016     248.0954    20724    225990.75    -17.57317   -15.078017     5.836523   -43.478016    433.48831     23.51548     22.16968    1.2934449    434.78176   -108.03356   -4271.0116 
   32000   -101044.45   -90817.675    248.34385    20724    226098.37    47.415969    217.81866   -179.69985    104.12909      433.397    23.523556    22.177294    1.3391002     434.7361   -128.15827   -4331.1834 
   32100   -101010.46   -90770.398    248.66668    20724    226227.61    3.4776526    192.72461   -22.705588   -159.58606    433.57865    23.525349    22.178984    1.2482739    434.82693   -129.41765   -4372.3999 
   32200   -101024.53   -90782.303    248.71904    20724     226231.1   -41.441864    5.9779428   -116.21883   -14.084698    433.67168    23.523007    22.176776     1.201758    434.87344   -131.21058   -4359.3138 
   32300   -101023.28    -90731.52    249.92188    20724    226351.34    14.999984    113.62265    48.248306   -116.87101    433.76007     23.52686    22.180408    1.1575631    434.91764   -145.11596   -4395.4716 
   32400      -101074   -90767.683    250.27546    20724    226103.47   -2.7498591    223.24684   -66.660266   -164.83615    433.86138    23.511229    22.165672    1.1069078    434.96829   -130.51869   -4381.6772 
   32500   -100954.62   -90788.194    246.87836    20724    226192.44    72.438082   -3.5223376    211.48959    9.3469895      433.817    23.517057    22.171167    1.1291024     434.9461   -119.33538   -4373.6258 
   32600   -101032.51   -90764.363     249.3486    20724    226279.37    81.163386    136.04408    583.00348    -475.5574    433.68645    23.525116    22.178764    1.1943727    434.88083   -115.76991   -4401.4687 
   32700   -101064.42   -90788.017    249.54907    20724    226064.64   -16.441757   -17.823809    112.09331   -143.59477    433.45828    23.520139    22.174072    1.3084597    434.76674   -112.73447   -4383.9308 
   32800    -101000.5   -90762.588    248.61448    20724    226097.46   -36.341769    -64.69933   -286.16861    241.84264    433.74121    23.514173    22.168447    1.1669927    434.90821   -125.90017    -4393.837 
   32900   -101044.04   -90769.785    249.49683    20724    226323.22    108.08978   -25.057004    154.53745     194.7889    433.69201    23.527244    22.180771    1.1915936    434.88361   -113.79242   -4400.1136 
   33000   -100929.95    -90723.93     247.8399    20724    226023.86    19.548428    43.881175    156.04436   -141.28025    433.38223    23.520081    22.174017    1.3464873    434.72871   -142.05647    -4423.778 
   33100   -101021.62   -90723.884     250.0671    20724     226286.1   -3.5436548    -27.05217   -80.279216    96.700421    433.73073    23.524265    22.177962     1.172236    434.90296   -122.94871   -4436.9602 
   33200   -100968.98   -90734.485    248.53143    20724    226360.65   -69.744893   -173.57833   -37.053352     1.397001    433.68058      23.5295    22.182897    1.1973112    434.87789    -108.9253    -4435.297 
   33300    -100935.6   -90673.125     249.2109    20724    226320.61   -6.2299631   -29.834514   -217.85682    229.00144    433.85318    23.522738    22.176523    1.1110108    434.96419   -135.10044   -4476.4165 
   33400   -100975.84       -90668    250.31237    20724    226280.16   -56.186115   -124.56333   -133.23362    89.238601    433.68733    23.525133     22.17878    1.1939337    434.88127   -131.06837   -4484.9673 
   33500   -100856.13   -90635.799    248.18754    20724    226307.68    51.153529   -24.011337   -11.430242    188.90216    433.70463    23.526094    22.179687     1.185287    434.88991   -160.69016   -4492.2707 
[...]
  491800   -95940.743   -84402.383    280.19404    20724    220785.88    81.895707     134.6328    215.12994   -104.07562    423.06298    23.527747    22.181245    6.5061099    429.56909    5640.3811   -23783.462 
  491900   -95891.092   -84396.604    279.12867    20724    220479.66     87.01752    137.65798    131.75956   -8.3649805    422.92234    23.515335    22.169543    6.5764296    429.49877    5641.3931   -23802.995 
  492000   -95923.763   -84419.323    279.37033    20724    220378.32   -77.964983   -221.65871    94.335041   -106.57128    423.01669    23.507308    22.161975    6.5292555    429.54594    5656.7209   -23792.262 
  492100   -95947.594   -84424.566    279.82171    20724    220132.67    22.307419   -174.63353    73.248363    168.30742     422.6926    23.503208     22.15811    6.6912995     429.3839    5662.3753   -23807.739 
  492200   -95792.789   -84409.492    276.42855    20724    220451.39    107.91348    129.71116    181.07246     12.95681    422.98428    23.512106    22.166498    6.5454591    429.52974    5668.8269   -23822.144 
  492300   -95835.141   -84342.909    279.07386    20724    220590.57    76.331883    321.58608     58.68609   -151.27652    422.97686    23.519733    22.173689    6.5491676    429.52603    5670.0411   -23884.579 
  492400    -95874.81   -84349.522     279.8766    20724     220604.2    -60.47244   -82.133997   -45.117357   -54.165965    423.33675    23.510459    22.164946    6.3692236    429.70598    5653.4929   -23858.816 
  492500   -95950.181   -84347.251    281.76202    20724    220665.03    17.563478    185.99283    202.56081    -335.8632    423.34006    23.513609    22.167916    6.3675717    429.70763    5633.6955   -23845.429 
  492600   -95745.267   -84362.015    276.42744    20724    220966.94   -72.138076    29.731488   -135.32675   -110.81897    423.52792     23.52447    22.178155    6.2736396    429.80156    5635.5022   -23816.898 
  492700   -95955.563   -84368.266    281.38239    20724    220540.36   -32.738385   -140.49885    154.57857   -112.29487    423.10453    23.513507     22.16782    6.4853337    429.58987    5633.6961   -23829.239 
  492800   -95907.194   -84368.502    280.20212    20724    220857.44   -22.857459   -230.88036    274.27815   -111.97017    423.28147    23.525486    22.179113    6.3968652    429.67833    5646.7385   -23832.788 
  492900   -95805.626   -84376.334    277.54547    20724    220479.67    9.1508606    -26.18864    439.39893   -385.75771    422.72012    23.520959    22.174845    6.6775402    429.39766     5634.673   -23830.736 
  493000   -95908.856   -84346.314    280.78127    20724    220542.22   -24.181805    239.69054   -451.87142    139.63547    422.61392    23.527251    22.180777     6.730638    429.34456    5636.5915   -23860.239 
  493100   -95800.285   -84363.518    277.72698    20724    220678.81    103.63593   -81.978581   -224.57583    617.46221    423.00151    23.523751    22.177477    6.5368431    429.53836    5650.7308   -23859.183 
  493200   -95828.743   -84361.674    278.46283    20724    220895.54   -62.176927    -190.1986     58.84473   -55.176907    423.03749    23.534299    22.187422    6.5188573    429.55634    5643.8813   -23841.727 
  493300   -95939.101   -84371.022    280.91573    20724       220843   -3.3435632    102.81389   -96.151775   -16.692801    422.71926    23.540355    22.193131    6.6779713    429.39723    5635.9578   -23830.925 
  493400    -95939.27   -84352.604    281.36708    20724    220637.49    -57.08957   -117.28553   -64.696464     10.71328    422.66427     23.53093    22.184246    6.7054643    429.36974    5627.2968   -23846.991 
  493500   -95848.351   -84381.869    278.44858    20724    220761.14    13.234228   -55.149102   -114.10472    208.95651    422.76089    23.534833    22.187925    6.6571553    429.41804    5640.7621   -23832.792 
  493600   -95867.608   -84369.649    279.21294    20724    220665.05   -28.909699   -64.413786    112.36304   -134.67835    422.45577    23.538207    22.191106    6.8097146    429.26549    5631.6606   -23834.386 
  493700    -95872.16   -84341.495    280.00719    20724    220809.65   -42.515581    -231.7928     85.37455    18.871509    422.43812    23.546409    22.198839    6.8185393    429.25666    5632.6746   -23861.427 
  493800   -95875.108   -84358.325    279.67007    20724    220820.51   -8.9748976    95.556749   -109.45236   -13.029082    422.67148    23.540487    22.193256    6.7018619    429.37334    5628.8676   -23844.775 
  493900   -95935.648   -84340.986    281.56126    20724    220859.27   -61.095061   -138.89343    -182.3472    137.95545    422.79337     23.53916    22.192004    6.6409166    429.43428    5640.6976   -23872.269 
  494000   -95943.922   -84330.668    282.01275    20724    220804.42   -171.40982   -120.86386    20.320666   -413.68625    422.75469    23.537313    22.190263    6.6602546    429.41495    5656.1742   -23895.545 
  494100   -95956.677   -84356.077    281.70544    20724     220702.8   -31.192172    170.80443    20.024647   -284.40559    422.27186    23.545346    22.197836    6.9016709    429.17353    5640.7296   -23867.747 
  494200   -95930.742   -84362.124    280.92883    20724    220573.85   -67.785097   -234.68268    275.09445   -243.76706    422.23814    23.539406    22.192236    6.9185292    429.15667    5633.7369   -23860.027 
  494300   -95865.322   -84410.852    278.15688    20724    220566.02    94.447635    100.63661   -29.345302     212.0516    422.11483    23.542426    22.195084    6.9801853    429.09501    5649.9178   -23836.663 
  494400   -95870.842   -84414.063    278.21294    20724    220483.66   -29.237163    45.530938   -407.42209    274.17966    421.99905    23.541259    22.193983     7.038076    429.03712    5653.3988   -23835.025 
  494500   -95883.049    -84399.09    278.87298    20724    220570.11     19.88898    183.88826   -138.85265     14.63133    422.28382    23.537933    22.190848    6.8956919    429.17951    5671.0367   -23867.464 
  494600   -95818.167   -84335.323    278.84589    20724    220892.72    32.124681    81.122492   -73.329069    88.580621    422.72789    23.542765    22.195403    6.6736549    429.40155    5652.5847   -23902.661 
  494700   -95947.959   -84403.792    280.33506    20724     220742.4    10.875705   -7.6893795   -77.331017    117.64751    422.37543    23.544571    22.197105    6.8498858    429.22531    5646.4703   -23834.638 
  494800   -95806.745   -84361.317     277.9373    20724    220723.65    45.390185    99.809597    20.253385    16.107572    422.56125    23.538393    22.191281    6.7569742    429.31823     5656.408   -23891.829 
  494900   -95857.573   -84348.538    279.48192    20724    220650.83    71.954553   -6.3625984   -111.22307    333.44933    422.74038    23.529524     22.18292    6.6674108    429.40779    5654.5645   -23908.735 
  495000   -95745.457   -84376.347    276.08404    20724    220770.37    166.44335     223.0845     153.0962    123.14935     422.8591    23.532592    22.185812      6.60805    429.46715     5666.204   -23892.698 
  495100   -95903.329   -84396.436    279.42992    20724    220782.66   -28.759391    48.390413    10.443612    -145.1122    423.10797    23.526325    22.179904    6.4836138    429.59159    5665.0839   -23864.452 
  495200    -95845.62   -84400.626    277.92676    20724    220829.17     34.59349    45.611407   -77.507385    135.67645    423.33436    23.522511    22.176308    6.3704215    429.70478    5644.3481   -23842.475 
  495300   -95791.936   -84386.553    276.96487    20724    220763.49   -27.462009    -79.47791   -71.740047     68.83193    423.03906     23.52722    22.180748    6.5180714    429.55713    5645.0256   -23855.989 
  495400   -95868.411   -84335.365    280.06499    20724    220730.02   -68.151972    206.91019   -273.25452   -138.11158    423.61111    23.509546    22.164086     6.232044    429.84316    5641.5274   -23907.452 
  495500   -95866.218   -84365.872    279.27093    20724    220956.09   -19.053084    97.594745    122.25233   -277.00632    423.71949    23.518574    22.172596    6.1778527    429.89735    5660.1468   -23893.073 
  495600   -95855.668   -84369.922    278.91637    20724    220891.19   -3.4139233   -157.98114   -313.36175    461.10112    423.76646    23.513816    22.168111    6.1543694    429.92083    5658.5595    -23890.04 
  495700   -95859.865   -84384.601    278.66182    20724    220626.06   -65.933273    3.3978814   -184.66913   -16.528566    423.44782    23.508541    22.163138    6.3136922    429.76151    5640.3918   -23866.652 
  495800   -95795.937   -84387.558    277.03763    20724    220442.98    28.334386    15.656256    86.040895   -16.693992    423.19393    23.505832    22.160584    6.4406369    429.63456    5658.5331   -23890.902 
  495900   -95890.834   -84351.421    280.21961    20724    220771.65    73.189868     76.84683   -151.93511    294.65789    423.56501    23.513043    22.167382    6.2550946    429.82011    5647.6972   -23910.451 
  496000   -95849.709   -84353.182    279.17819    20724    220646.46    59.429579   -85.583523    103.29684    160.57542     423.6324    23.504505    22.159333    6.2213996     429.8538    5659.9047   -23922.856 
  496100   -95823.697   -84371.121    278.11088    20724    220641.49    153.49505   -121.48177    396.92245    185.04447    423.34974    23.512086     22.16648    6.3627287    429.71247    5657.9641   -23911.915 
  496200   -95939.606   -84354.884    281.31988    20724    220692.79    -52.70197   -105.45816    2.0655158   -54.713267    423.60235    23.507807    22.162445    6.2364266    429.83877     5671.093   -23933.194 
  496300   -95819.714   -84304.779    279.62518    20724    220864.22    57.717074    331.57704   -142.11463   -16.311191    423.98288    23.506379    22.161099    6.0461589    430.02904    5632.7453   -23943.405 
  496400   -95789.974    -84296.45    279.10525    20724    220637.08   -3.6594957   -29.821954   -83.135927    101.97939    424.04741    23.492501    22.148016    6.0138937    430.06131    5648.9527    -23972.95 
  496500   -95874.516   -84332.254     280.2888    20724    220880.74    64.165328    51.631423    175.18768    -34.32312    424.63687    23.489149    22.144856    5.7191656    430.35603    5663.0331   -23949.271 
  496600   -95798.037    -84295.33    279.32826    20724    220998.35   -8.2905659    111.79371   -116.85827   -19.807137    424.33825    23.503668    22.158544    5.8684761    430.20672    5672.5426   -23988.992 
  496700   -95927.237   -84292.766    282.52795    20724    221161.72   -62.402541   -212.52278     -163.384    188.69915    424.64567    23.503841    22.158707    5.7147636    430.36044    5674.7151   -23987.081 
  496800   -95859.538   -84345.084    279.61353    20724    221033.99    35.011256   -14.859079    86.738521    33.154326    424.05097    23.513524    22.167836     6.012117    430.06308    5674.0378   -23946.289 
  496900    -95861.64   -84302.272    280.70419    20724     221303.2   -50.348611   -5.9361562   -57.185056   -87.924622    424.44864    23.516814    22.170937    5.8132778    430.26192    5641.3489   -23945.078 
  497000   -95858.025   -84267.082    281.47095    20724    221364.53   -69.824063   -56.575739   -131.04064   -21.855805    424.74306     23.51192    22.166323    5.6660709    430.40913    5653.6428   -23990.275 
  497100   -95741.114   -84283.232    278.23973    20724     220938.2    1.5564096     1.076402    91.489224   -87.896397    424.58346    23.493682    22.149129      5.74587    430.32933    5642.1461   -23981.731 
  497200   -95801.551   -84219.415    281.25709    20724     221440.8    8.9368726   -97.059196    103.14774    20.722078    424.78384    23.514841    22.169077    5.6456822    430.42952    5618.4647   -24006.725 
  497300    -95830.34   -84290.554    280.22865    20724    221190.66    39.339733       83.296    267.59108   -232.86788    424.51212    23.509076    22.163642    5.7815409    430.29366     5635.421   -23966.083 
  497400   -95897.172   -84267.685    282.40693    20724    221589.56   -4.3029417    105.46185    36.414539   -154.78522    424.98778    23.517093    22.171201    5.5437088    430.53149    5635.6793    -23976.09 
  497500     -95831.6   -84248.113    281.28991    20724    221309.34    128.22501    212.30958   -196.57846    368.94391    424.84345     23.50621    22.160941    5.6158752    430.45932    5631.1411   -24006.728 
  497600    -95798.29   -84232.124    280.86927    20724    221662.81   -84.628971   -97.919793   -412.68165    256.71453    425.07127     23.51867    22.172687    5.5019638    430.57324    5629.9402   -24001.293 
  497700   -95813.806   -84199.861    282.02952    20724    221651.78   -59.121392    -112.1418   -139.31147    74.089098    424.63615    23.530131    22.183492    5.7195229    430.35568    5624.3111   -24028.676 
  497800   -95852.654   -84187.965    283.26176    20724    221618.63   -45.506592    109.60137   -43.229687   -202.89146    424.44627    23.533634    22.186794    5.8144656    430.26073    5615.8916   -24037.784 
  497900   -95734.069   -84184.311    280.47082    20724    221390.46   -31.443222    -173.6902    307.72181   -228.36127    424.57829    23.517858    22.171922    5.7484538    430.32675    5618.2557   -24051.884 
  498000    -95842.42   -84203.313    282.64056    20724    221380.79   -47.874274    11.843786    59.395502   -214.86211    425.32164    23.496785    22.152055      5.37678    430.69842    5638.7438   -24056.559 
  498100   -95739.701   -84184.276    280.60843    20724    221322.77   -97.785207   -172.66853   -155.67493    34.987836    425.04826     23.50126    22.156273    5.5134696    430.56173    5625.5222   -24062.341 
  498200   -95756.663   -84157.494    281.67071    20724    221190.07   -47.273354   -188.67292   -146.52235    193.37521    424.72614    23.503121    22.158028    5.6745287    430.40067    5632.4572   -24104.278 
  498300   -95717.206   -84152.053     280.8447    20724    221285.33   -100.89645   -210.26644   -86.102329   -6.3205943    424.70628    23.508731    22.163317    5.6844618    430.39074    5609.0272   -24082.933 
  498400   -95688.909   -84160.921    279.94216    20724    221265.93    34.843556    103.04342    102.80174   -101.31449     424.6584    23.509026    22.163595    5.7084015     430.3668    5624.3884   -24097.291 
  498500    -95822.62   -84200.628    282.22496    20724    221241.63   -33.444777    26.545493   -107.92795   -18.951876    424.30344    23.517566    22.171646    5.8858791    430.18932    5632.5948   -24066.218 
  498600   -95745.693   -84248.209    279.20141    20724    221146.18    31.336368      188.677   -52.469308   -42.198589    424.38288    23.510291    22.164788    5.8461607    430.22904      5657.95   -24049.396 
  498700   -95760.855   -84229.491    280.02414    20724    221105.12    62.056498    182.81269   -146.75551    150.11232     424.5496    23.503492    22.158378    5.7627999     430.3124    5658.0618   -24069.595 
  498800   -95755.663   -84198.753    280.64451    20724     221259.6   -4.9761782    38.735238   -77.069745    23.405972    424.91729    23.501527    22.156525    5.5789548    430.49625    5674.2364   -24112.079 
  498900   -95779.906   -84172.856    281.86209    20724    221366.05   -56.129715   -137.32317    287.54493    -318.6109    424.92241    23.507038     22.16172    5.5763941    430.49881    5676.7977   -24135.864 
  499000   -95753.702   -84173.142     281.2188    20724    221582.02    37.807025   -151.96169    42.212007    223.17076    424.64492    23.526185    22.179772    5.7151377    430.36006    5682.0655   -24140.396 
  499100   -95771.805    -84177.97    281.54117    20724    221515.36    14.800773    238.92939   -166.97602   -27.551053    424.35707    23.530623    22.183956    5.8590631    430.21614    5670.7155   -24127.165 
  499200   -95743.638   -84182.855    280.73856    20724    221349.37    31.585481    59.262509    96.082212   -60.588279    424.51508    23.517427    22.171515    5.7800604    430.29514    5662.8596   -24121.444 
  499300   -95907.734   -84205.978    284.16192    20724     221360.8   -51.124177    9.7371313   -6.8401692   -156.26949    424.88984     23.50766    22.162307    5.5926778    430.48252    5652.6279   -24086.789 
  499400   -95732.992   -84178.457    280.58684    20724    221287.82    90.558194    140.14885    78.424656     53.10108    424.80007    23.506268    22.160995    5.6375642    430.43764    5640.4689   -24111.982 
  499500   -95849.426   -84213.684    282.55882    20724    221517.01   -91.977651    46.393417    119.03821   -441.36458    424.94115    23.514533    22.168787    5.5670261    430.50817    5664.5783   -24086.206 
  499600    -95744.03   -84205.931    280.18771    20724    221179.01   -128.76804   -241.07415   -202.71405    57.484079    424.91242    23.497381    22.152616    5.5813919    430.49381    5642.0879   -24083.137 
  499700   -95754.121    -84196.79    280.65471    20724    221321.25    51.503744    11.388709   -81.665734    224.78826    425.11867    23.499233    22.154362    5.4782669    430.59693    5647.4181   -24102.625 
  499800   -95803.272     -84230.8    281.02239    20724    221354.13   -36.669732   -139.00115   -281.37676    310.36871    425.26665    23.496889    22.152153    5.4042733    430.67093    5655.5746   -24073.619 
  499900   -95749.002   -84205.821    280.31112    20724    221239.44   -88.782696   -234.34569    4.1146644   -36.117064    425.12916    23.494599    22.149994    5.4730212    430.60218    5638.4465   -24081.907 
  500000   -95754.218   -84263.614    279.03436    20724    221346.67   -63.862889    -13.71592    30.704956    -208.5777    424.75614    23.510609    22.165088     5.659532    430.41567    5644.7413   -24030.915 
Loop time of 51657.9 on 32 procs for 500000 steps with 20724 atoms

Performance: 1.673 ns/day, 14.349 hours/ns, 9.679 timesteps/s
97.3% CPU use with 32 MPI tasks x no OpenMP threads

MPI task timing breakdown:
Section |  min time  |  avg time  |  max time  |%varavg| %total
---------------------------------------------------------------
Pair    | 6504.1     | 9220.5     | 13114      |2528.2 | 17.85
Bond    | 0.35442    | 0.4623     | 0.54845    |   7.1 |  0.00
Kspace  | 7909.2     | 11818      | 14548      |2245.7 | 22.88
Neigh   | 8334.3     | 10120      | 12122      |1257.0 | 19.59
Comm    | 389.74     | 3911.9     | 7590.2     |4415.9 |  7.57
Output  | 5.3993     | 44.622     | 72.673     | 380.7 |  0.09
Modify  | 13012      | 16505      | 21410      |2470.0 | 31.95
Other   |            | 38.29      |            |       |  0.07

Nlocal:    647.625 ave 697 max 597 min
Histogram: 1 2 3 7 7 2 0 3 5 2
Nghost:    7356.41 ave 7784 max 7002 min
Histogram: 4 3 5 7 2 0 0 2 6 3
Neighs:    237893 ave 271559 max 213084 min
Histogram: 2 4 11 3 1 1 1 3 5 1
FullNghs:  475788 ave 542787 max 426572 min
Histogram: 2 3 12 3 1 1 1 3 5 1

Total # of neighbors = 15225204
Ave neighs/atom = 734.665
Ave special neighs/atom = 2
Neighbor list builds = 500000
Dangerous builds not checked
write_data production.R1
PPPM initialization ...
  extracting TIP4P info from pair style
WARNING: Using 12-bit tables for long-range coulomb (../kspace.cpp:316)
  G vector (1/distance) = 0.34586
  grid = 400 48 48
  stencil order = 5
  estimated absolute RMS force accuracy = 0.000403027
  estimated relative force accuracy = 1.2137e-06
  using double precision FFTs
  3d grid and FFT values/proc = 67260 38400
write_restart restartproduction.R1
PPPM initialization ...
  extracting TIP4P info from pair style
WARNING: Using 12-bit tables for long-range coulomb (../kspace.cpp:316)
  G vector (1/distance) = 0.34586
  grid = 400 48 48
  stencil order = 5
  estimated absolute RMS force accuracy = 0.000403027
  estimated relative force accuracy = 1.2137e-06
  using double precision FFTs
  3d grid and FFT values/proc = 67260 38400
Total wall time: 14:20:58
