LAMMPS (30 Jul 2016)
# Sets up LAMMPS simulation for transient melting of ice: TIP4P/Ice
# Ensure cold thermostats do not move
# Thinbox: 16x1x1
# Defects
# Order param l=2

#### setting MD parameters ####
units real
boundary p p p
atom_style full

# read ice box in restart file
#read_data ice-ih-restart.data
read_restart restart.state
  orthogonal box = (0.430182 0.0232132 0.0218847) to (435.645 23.508 22.1626)
  32 by 1 by 1 MPI processor grid
  20736 atoms
  13824 bonds
  6912 angles
  2 = max # of 1-2 neighbors
  1 = max # of 1-3 neighbors
  1 = max # of 1-4 neighbors
  2 = max # of special neighbors

#replicate 16 boxes, 16x1x1


#### force field definition ####
pair_style      lj/cut/tip4p/long 2 1 1 1 0.1577 10.0
pair_modify	tail yes

kspace_style	pppm/tip4p 1.0e-6

bond_style	harmonic
angle_style	harmonic
dihedral_style	none
improper_style	none

bond_coeff	1 450.0 0.9572
angle_coeff	1 55.0 104.52


# reset pair coeff
pair_coeff	* * 0.0 0.0

#OO
pair_coeff	2 2 0.21085 3.1668
#OH
pair_coeff	* 1 0.0000 0.0000

neighbor        2.0 bin
neigh_modify    every 1 delay 1 check no

timestep	2.0
fix		constraints all shake 0.000001 20 0 b 1 a 1
  0 = # of size 2 clusters
  0 = # of size 3 clusters
  0 = # of size 4 clusters
  6912 = # of frozen angles

group water type 1 2
20736 atoms in group water

#*********** SIMULATION PARAMETER TO ADJUST ****************
#Box dimensions
variable lx equal lx
variable ly equal ly
variable lz equal lz

### Temperature of the hot and cold regions ####
variable thi equal 375
variable tlo equal 215
variable runpressure equal 0.986923
# Configuration equilibrated in density and temperature

# Define dx here

variable lx equal lx
variable ly equal ly
variable lz equal lz

variable xlo equal xlo
variable xhi equal xhi


variable dx equal 2.0

### ADD IN DEFECTS AT THE CENTRE OF THE HOT THERMOSTAT ###
variable x1 equal ${lx}/4.0
variable x1 equal 435.214836386165/4.0
variable y1 equal ${ly}/2.0
variable y1 equal 23.4847736307173/2.0
variable z1 equal ${lz}/2.0
variable z1 equal 22.1407306304252/2.0

region kill1 sphere ${x1} ${y1} ${z1} 3
region kill1 sphere 108.803709096541 ${y1} ${z1} 3
region kill1 sphere 108.803709096541 11.7423868153586 ${z1} 3
region kill1 sphere 108.803709096541 11.7423868153586 11.0703653152126 3
delete_atoms region kill1 compress no bond yes mol yes
Deleted 15 atoms, new total = 20721
Deleted 10 bonds, new total = 13814
Deleted 5 angles, new total = 6907




variable thip equal ${thi}*2.0/3.0
variable thip equal 375*2.0/3.0
variable tlop equal ${tlo}*2.0/3.0
variable tlop equal 215*2.0/3.0
variable cbl equal ${lx}*3.0/4.0-${dx}
variable cbl equal 435.214836386165*3.0/4.0-${dx}
variable cbl equal 435.214836386165*3.0/4.0-2
variable cbh equal ${lx}*3.0/4.0+${dx}
variable cbh equal 435.214836386165*3.0/4.0+${dx}
variable cbh equal 435.214836386165*3.0/4.0+2
variable hbl equal ${lx}*1.0/4.0-${dx}
variable hbl equal 435.214836386165*1.0/4.0-${dx}
variable hbl equal 435.214836386165*1.0/4.0-2
variable hbh equal ${lx}*1.0/4.0+${dx}
variable hbh equal 435.214836386165*1.0/4.0+${dx}
variable hbh equal 435.214836386165*1.0/4.0+2


#***************************************************
## EQUILIBRATION PERIOD - to reach the steady state ###
#run 0

#reset the timestep to start your production run
reset_timestep 0

# define a group to perform averages
#group s1 type 1
###*** SYSTEM THERMOSTATTING: HOT and COLD regions ***###

fix NVE all nve
fix PRESS all press/berendsen aniso ${runpressure} ${runpressure} 500000 couple yz
fix PRESS all press/berendsen aniso 0.986923 ${runpressure} 500000 couple yz
fix PRESS all press/berendsen aniso 0.986923 0.986923 500000 couple yz


### Apply THERMOSTATS ###

#set up the "hot region" in the middle of the box
region hot block ${hbl} ${hbh} 0 ${ly} 0 ${lz} units box
region hot block 106.803709096541 ${hbh} 0 ${ly} 0 ${lz} units box
region hot block 106.803709096541 110.803709096541 0 ${ly} 0 ${lz} units box
region hot block 106.803709096541 110.803709096541 0 23.4847736307173 0 ${lz} units box
region hot block 106.803709096541 110.803709096541 0 23.4847736307173 0 22.1407306304252 units box


#set up the "cold region" at the left end of the box
region cold block ${cbl} ${cbh} 0 ${ly} 0 ${lz} units box
region cold block 324.411127289624 ${cbh} 0 ${ly} 0 ${lz} units box
region cold block 324.411127289624 328.411127289624 0 ${ly} 0 ${lz} units box
region cold block 324.411127289624 328.411127289624 0 23.4847736307173 0 ${lz} units box
region cold block 324.411127289624 328.411127289624 0 23.4847736307173 0 22.1407306304252 units box

#set up the "cold region" at the right end of the box
#region cold2 block ${h2bl} ${xhi} 0 ${ly} 0 ${lz} units box


#Cold regions  unification
#region cold union 2 cold1 cold2 units box

#Create group of cold molecules
####group cool_ice region cold
####group cool_ice include molecule

####compute cold_temp cool_ice temp
####fix cold_rescale water temp/rescale 1 ${tlo} ${tlo} 0.0001 1.0
####fix_modify cold_rescale temp cold_temp

#this calculates the temperature using only the atoms in the "hot region"
#compute hot_temp all temp/region hot

# calculate the temperature using only WATER in the "hot region"
compute hot_temp water temp/region hot

#this calculates the temperature using only WATER in the "cold region"
compute cold_temp water temp/region cold


#set up a basic velocity rescale for the hot region WATER with thip
fix hot_rescale water temp/rescale 1 ${thip} ${thip} 1.0 1.0
fix hot_rescale water temp/rescale 1 250 ${thip} 1.0 1.0
fix hot_rescale water temp/rescale 1 250 250 1.0 1.0
#change the thermostat to only act on the "hot region"
#this is done by passing it the "hot temp" compute that we defined above
fix_modify hot_rescale temp hot_temp

#set up a basic velocity rescale for the cold region
fix cold_rescale water temp/rescale 1 ${tlop} ${tlop} 1.0 1.0
fix cold_rescale water temp/rescale 1 143.333333333333 ${tlop} 1.0 1.0
fix cold_rescale water temp/rescale 1 143.333333333333 143.333333333333 1.0 1.0
#change the thermostat to only act on the "cold region"
#this is done by passing it the "cold temp" compute that we defined above
fix_modify cold_rescale temp cold_temp

### Ensure MOMENTUM CONSERVATION ###

#ensure that linear momentum is conserved despite the "thermostatting" by velocity rescaling
fix cons_mom all momentum 1 linear 1 1 1


thermo 100
thermo_style custom step pe etotal temp atoms vol press pxx pyy pzz lx ly lz xlo xhi f_cold_rescale f_hot_rescale

group ox type 2
6907 atoms in group ox
group hy type 1
13814 atoms in group hy
compute KE all ke/atom
variable TEMP atom c_KE*4186.8/(1.3806488*6.02214129)

compute cc1 all chunk/atom bin/1d x center 2 units box
#fix TPROFILE all ave/chunk 1 500 500 cc1 v_TEMP density/number file temp.dat
fix TPROFILEox ox ave/chunk 1 500 500 cc1 v_TEMP density/number file temp-ox.dat
fix TPROFILEhy hy ave/chunk 1 500 500 cc1 v_TEMP density/number file temp-hy.dat

compute orderparam ox orientorder/atom degrees 1 2 nnn 4 cutoff 3.5
compute cc2 ox chunk/atom bin/1d x center 2 units box
#fix ORDERPARAM all ave/chunk 1 500 500 cc2 c_orderparam[1] file order-param.dat
fix ORDERPARAM all ave/chunk 1 500 500 cc2 c_orderparam[1] file order-param.dat

restart 50000 config.restart

run 500000
PPPM initialization ...
  extracting TIP4P info from pair style
WARNING: Using 12-bit tables for long-range coulomb (../kspace.cpp:316)
  G vector (1/distance) = 0.3456
  grid = 405 48 48
  stencil order = 5
  estimated absolute RMS force accuracy = 0.00040595
  estimated relative force accuracy = 1.22251e-06
  using double precision FFTs
  3d grid and FFT values/proc = 67260 38880
Neighbor list info ...
  2 neighbor list requests
  update every 1 steps, delay 1 steps, check no
  max neighbors/atom: 2000, page size: 100000
  master list distance cutoff = 12.3154
  ghost atom cutoff = 12.3154
  binsize = 6.1577 -> bins = 71 4 4
Memory usage per processor = 12.7571 Mbytes
Step PotEng TotEng Temp Atoms Volume Press Pxx Pyy Pzz Lx Ly Lz Xlo Xhi cold_res hot_resc 
       0   -103885.25   -94980.855    216.26284    20721    226298.68   -9.4248906    -32.72994   -9.5149639    13.970232    435.21484    23.484774    22.140731   0.43018181    435.64502            0            0 
     100   -103580.81   -94731.908    214.91509    20721    226311.52    51.839484    160.93929   -35.507673    30.086835    435.02648    23.490524    22.146152   0.52436219    435.55084   -0.4930361   -250.19514 
     200   -103692.87    -94715.01    218.04723    20721    226185.36   -27.598368    80.406954   0.68932609   -163.89138    435.14708    23.480721     22.13691   0.46405951    435.61114   -1.3025139   -267.17166 
     300   -103538.18   -94604.501    216.97418    20721     226348.7    28.139173   -52.887047    123.93553    13.369033    435.43989    23.481299    22.137455   0.31765743    435.75754   -13.795493   -364.10818 
     400   -103585.73   -94581.166    218.69585    20721    226223.21    67.080771    76.580594    336.46018   -211.79846    435.06549    23.484887    22.140838   0.50485574    435.57034    8.1303925   -412.86287 
     500   -103572.53   -94511.587    220.06496    20721    226370.61    9.8901055   -0.3153843   -2.6438293     32.62953    435.24224    23.487766    22.143552   0.41647848    435.65872   -11.007294     -458.408 
     600   -103569.44   -94534.956    219.42233    20721    226258.72    42.139715    44.164559   -47.253733    129.50832    434.98799    23.488822    22.144548   0.54360506    435.53159    15.542491   -467.77911 
     700   -103476.71   -94468.587    218.78232    20721    226230.25    7.7861395   -154.68153    -57.70136    235.74131    435.04359    23.485844     22.14174   0.51580578    435.55939  -0.65943781   -516.52006 
     800   -103464.94   -94381.035     220.6227    20721    226297.67    4.1084913   -106.01198   -266.01739    384.35485    435.03751    23.489507    22.145193   0.51884308    435.55636    6.8237094   -611.56562 
     900   -103517.32   -94380.057    221.91868    20721    226406.21    18.731654    17.855735   -85.743565    124.08279    435.11039    23.493172    22.148648   0.48240449     435.5928   -1.3913334   -603.64211 
    1000   -103465.15   -94324.289    222.00594    20721    226170.03   -44.277185   -166.86907   -25.091408     59.12892    434.81337    23.488933    22.144652   0.63091699    435.44428      25.1732   -689.83573 
    1100   -103391.24    -94271.73    221.48744    20721    226244.85    32.458155   -67.256983    9.8991488     154.7323    435.10987    23.484813    22.140767   0.48266525    435.59253    5.8305122   -723.70995 
    1200   -103502.82   -94276.443    224.08287    20721    226391.06   -49.760686   -266.88766     93.92396    23.681643    435.00096    23.495341    22.150693   0.53712089    435.53808    5.0276886    -712.8932 
    1300   -103357.37   -94250.905    221.17075    20721    226351.98    15.578999    100.66315    249.97227   -303.89843    435.04715    23.492065    22.147605   0.51402373    435.56118   -13.124903   -724.26436 
    1400   -103394.55   -94179.411    223.81003    20721    226316.01   -48.077744   -76.982951     88.66038   -155.91066    434.89809    23.494224     22.14964   0.58855728    435.48664   -34.716602   -772.56978 
    1500   -103280.19   -94138.408    222.02846    20721    226361.73    42.643834   -4.5362244     161.0324    -28.56467     435.1817    23.488939    22.144658   0.44674839    435.62845   -28.325508   -822.49902 
    1600   -103254.34   -94086.917    222.65124    20721    226366.01    42.956271    134.76425   -207.90677    202.01134    434.90977    23.496504     22.15179   0.58271715    435.49248   -50.203147   -853.21989 
    1700   -103345.54    -94076.47     225.1199    20721     226467.5   -42.260214    162.99328   -58.637979   -231.13595    435.04965    23.497992    22.153192   0.51277434    435.56243    -16.53996   -893.06005 
    1800   -103240.67   -94047.215    223.28335    20721    226513.38   -7.7172936    36.695252   -69.616601    9.7694681    435.25608    23.494798    22.150182   0.40955971    435.66564   -37.075365   -901.58421 
    1900   -103281.49   -94027.122    224.76272    20721    226345.93   -82.293528   -132.63986   -142.96267    28.721948    435.14268    23.489172    22.144878   0.46625831    435.60894   -49.496507   -912.84134 
    2000   -103230.35   -94005.318    224.05042    20721    226538.68   -10.966239   -192.39774    118.78811    40.710905    435.20356    23.497528    22.152755   0.43582137    435.63938   -49.474487    -932.7589 
    2100    -103156.6   -93919.686    224.33901    20721    226570.13   -3.0486353   -60.028252   -51.099906    101.98225    435.10878    23.501718    22.156706   0.48321013    435.59199   -66.979214   -1000.7202 
    2200    -103206.7   -93919.498     225.5602    20721    226505.62   -38.330505    124.37757   -206.23215   -33.136928    435.31686    23.492756    22.148256   0.37917024    435.69603   -47.850552   -1021.3623 
    2300   -103221.68   -93907.388    226.21831    20721    226539.01   -5.4556494   -144.17544     53.00599    74.802502    435.17437    23.498333    22.153514   0.45041288    435.62479   -54.148661   -1029.3623 
    2400   -103237.65   -93955.944    225.42677    20721    226566.82    61.851917     75.84823    293.25323    -183.5457    435.20623    23.498915    22.154063   0.43448699    435.64071   -16.637062   -1021.7946 
    2500   -103172.39   -93938.011    224.27742    20721    226449.82   -52.214974    49.128059    131.86449   -337.63747    435.06959    23.496536     22.15182   0.50280701    435.57239   -46.358301   -1009.7846 
    2600   -103148.19   -93846.366    225.91544    20721    226645.45   -38.166507    86.350896   -145.11551   -55.734908    435.25809    23.501593    22.156587   0.40855709    435.66664   -46.735943   -1097.9403 
    2700    -103117.3   -93861.846    224.78911    20721    226616.88    82.032971    21.541262    22.816839    201.74081    435.03579    23.506114     22.16085   0.51970454     435.5555   -31.854393   -1103.8105 
    2800   -103054.39   -93799.153    224.78384    20721    226456.31    30.884622    94.831504    165.18704   -167.36468    435.09915    23.496075    22.151385    0.4880241    435.58718   -53.420608   -1147.2826 
    2900   -103207.03    -93798.55    228.50571    20721    226683.73   -50.550108    -52.57722   -75.915992   -23.157111    435.34793    23.501152    22.156171   0.36363556    435.71156   -35.561172   -1159.2639 
    3000   -103101.74   -93774.242    226.53891    20721    226500.86    37.964878   -35.262793   -110.10038     259.2578    435.15799    23.496797    22.152066    0.4586046     435.6166   -36.189367    -1191.179 
    3100   -103075.51   -93694.643    227.83518    20721    226639.75   -71.128651   -55.825585   -74.600901   -82.959468     435.2835    23.500611    22.155662   0.39584882    435.67935   -53.310936   -1244.8042 
    3200   -102960.94   -93675.039    225.52871    20721    226405.73   -17.455813    69.402491    19.773396   -141.54332    435.11241    23.493092    22.148573    0.4813967     435.5938   -37.062617   -1291.3433 
    3300   -103011.27   -93621.723    228.04586    20721    226756.47    57.922578    120.09506    252.39384   -198.72117    435.22624    23.508208    22.162824   0.42448054    435.65072   -45.765833   -1331.9209 
    3400   -103004.23    -93635.31    227.54488    20721    226251.26   -75.892707   -5.9682969    103.42884   -325.13867    435.11946    23.484886    22.140837   0.47787148    435.59733   -39.093298   -1332.8738 
    3500   -102978.13   -93632.805    226.97197    20721    226509.74    77.749329   -33.769829   -38.683949    305.70177    435.15806    23.497256    22.152498   0.45856861    435.61663   -30.821017   -1345.7382 
    3600   -102995.84   -93596.952    228.27289    20721    226372.47  -0.44042993    20.322807   -118.72344    97.079342    435.13649    23.490717    22.146334   0.46935687    435.60584   -52.263046    -1361.738 
    3700   -103040.16   -93578.166    229.80542    20721    226441.19   -30.503561   -90.784683   -188.68316    187.95716    435.11984    23.494732    22.150119   0.47767955    435.59752    -64.50038    -1364.532 
    3800   -102955.81   -93612.354    226.92655    20721    226529.34    28.014578    197.09645    144.81954   -257.87226    435.16891    23.497979     22.15318   0.45314675    435.62205   -58.368796   -1338.7943 
    3900   -102942.39   -93602.709    226.83471    20721    226582.25    49.637073    83.331695    46.886426    18.693097    435.20153    23.499842    22.154937   0.43683745    435.63836   -48.958096   -1356.4852 
    4000   -103019.69   -93578.681    229.29586    20721    226624.88    22.083337    278.22833   -105.08258   -106.89574    435.40767    23.496489    22.151775   0.33376374    435.74144   -39.463935   -1389.2432 
    4100   -102988.29   -93553.525    229.14416    20721    226450.87   -2.7165019    93.660019   -117.11879    15.309266    435.32889    23.489592    22.145273   0.37315571    435.70204   -58.511092   -1399.4421 
    4200   -102927.17   -93532.921    228.16011    20721    226458.12   -56.951925    2.2258575   -160.75579   -12.325842    435.33321    23.489851    22.145517   0.37099383    435.70421   -41.171277   -1435.6113 
    4300   -102853.94   -93507.539    226.99794    20721    226526.47   0.44750369   -36.580634    43.728213   -5.8050677    435.19098    23.497234    22.152478   0.44211028    435.63309   -47.687136   -1454.9351 
    4400   -102882.91   -93461.911    228.80986    20721    226462.88     44.39851     -75.3032   -131.45757     339.9563    435.19822    23.493741    22.149185   0.43849135    435.63671   -59.370451   -1494.8959 
    4500   -102867.31   -93467.659    228.29137    20721    226568.37   -45.239115   -91.205494    8.0620135   -52.573864    435.31028    23.496187    22.151491   0.38245771    435.69274   -51.530231   -1490.6922 
    4600   -102892.25   -93500.833    228.09124    20721     226495.2    30.569934   -168.81787    196.99228    63.535391    435.15011    23.496716    22.151989   0.46254525    435.61265   -34.236622   -1480.5453 
    4700   -102913.46   -93449.166    229.86124    20721    226566.65   -11.075286   -68.919018   -28.535361     64.22852    435.16948    23.499899     22.15499   0.45286019    435.62234   -41.849336   -1522.3609 
    4800   -102801.99   -93438.637    227.40966    20721    226480.51    99.472429   -52.828392    216.81936    134.42632    434.99555    23.500128    22.155206   0.53982478    435.53538    -67.01995   -1514.3687 
    4900   -102794.37   -93433.445    227.35082    20721    226570.25   -25.285445    4.4936691   -94.325982    13.975979    435.11274    23.501618    22.156611   0.48122945    435.59397   -64.561869   -1514.4866 
    5000   -102807.74   -93440.324    227.50852    20721    226630.61    95.812421    119.29136    194.57247   -26.426563    435.16627    23.503303    22.158199   0.45446719    435.62073   -41.383601   -1536.7716 
    5100   -102862.96   -93443.085    228.78254    20721    226624.82    34.870866   -125.57086    146.42801    83.755454    435.22243    23.501486    22.156486   0.42638703    435.64881   -53.083876   -1520.6248 
    5200   -102824.71   -93435.462    228.03857    20721     226738.9    64.338425    64.418263     126.0755    2.5215109    435.18989    23.508279    22.162891   0.44265312    435.63255   -58.867544   -1522.0073 
    5300    -102882.3    -93418.47     229.8501    20721    226592.29   -10.206704   -117.89097    455.81378   -368.54292    435.21429    23.500018    22.155103    0.4304558    435.64474   -49.247253   -1549.9585 
    5400   -102808.95   -93431.721    227.74675    20721    226758.76   -13.667766    304.02471   -119.79423   -225.23378    435.28303    23.506793     22.16149     0.396085    435.67911   -41.085564   -1541.6053 
    5500   -102852.52   -93440.754     228.5855    20721       226610   -26.264112   -115.65241    57.124707   -20.264636    435.22049    23.500769    22.155811   0.42735577    435.64784   -38.010717   -1540.8078 
    5600   -102751.92   -93386.101    227.46956    20721    226719.62    44.629886    42.232393    147.86092   -56.203654    435.36044    23.502675    22.157607   0.35737878    435.71782   -39.950368   -1594.5541 
    5700   -102814.45   -93379.245    229.15483    20721    226652.77   -13.172754   -75.774649   -136.05457    172.31095    435.10278    23.506166    22.160899   0.48620766    435.58899   -57.419475   -1583.8776 
    5800   -102773.77   -93339.906    229.12223    20721    226507.21    55.897091   -2.7018138   -108.07699    278.47008    435.29558    23.493412    22.148875   0.38981202    435.68539   -81.333353   -1607.8388 
    5900   -102844.23   -93363.202     230.2678    20721    226735.54   -20.687911   -41.965496    65.833195   -85.931433    435.29698    23.505213        22.16    0.3891092    435.68609   -72.091553   -1586.2584 
    6000   -102885.96   -93337.575    231.90375    20721    226684.98    5.9899194   -162.98285    379.23505   -198.28244    435.16549    23.506142    22.160876   0.45485365    435.62035   -70.097153   -1616.2222 
    6100   -102827.05    -93348.53    230.20695    20721    226663.48    -48.29794    111.06328    72.637744   -328.59485    435.16239    23.505111    22.159904   0.45640534    435.61879   -44.195205   -1629.7161 
    6200   -102743.22   -93321.818    228.81955    20721    226761.11    83.979315   -57.294454    363.55011   -54.317713    435.59489    23.498499     22.15367   0.24015616    435.83504    -66.31461   -1639.3909 
    6300   -102741.86   -93297.829     229.3693    20721    226682.42    102.48994    336.55536    -79.88978    50.804227     435.3709    23.500464    22.155523   0.35215235    435.72305   -68.664711   -1665.6077 
    6400   -102802.05   -93295.853    230.87897    20721    226576.08     40.89393    69.740143   -164.75982    217.70147     435.1973    23.499637    22.154743   0.43895188    435.63625   -62.981409   -1673.9001 
    6500   -102828.03    -93269.11    232.15948    20721    226668.82    11.412701   -65.113957   -217.96429    317.31635    435.24988    23.503026    22.157939   0.41266249    435.66254   -69.393753   -1691.2875 
    6600    -102748.7   -93275.239    230.08388    20721    226488.71   -79.557051   -74.013399   -308.23821    143.58046    435.23199    23.494169    22.149588    0.4216035     435.6536   -60.826276   -1696.2145 
    6700   -102863.28   -93221.566    234.17043    20721    226624.55   -58.514102   -99.062481    199.88928    -276.3691    435.28135    23.499881    22.154973   0.39692376    435.67828   -79.984957    -1728.884 
    6800   -102756.08   -93228.717     231.3932    20721       226478    16.567957    16.467315    221.66357   -188.42701    435.22589    23.493778     22.14922    0.4246563    435.65054   -78.366922   -1732.8408 
    6900   -102775.61   -93261.598    231.06887    20721    226637.29     35.38725    28.838622    295.45166   -218.12853    435.19197    23.502955    22.157871   0.44161713    435.63358    -47.24165   -1729.5941 
    7000   -102653.19   -93217.276    229.17197    20721    226621.96    27.420435    189.65106   -313.41318    206.02342    435.39439    23.496696    22.151971   0.34040317     435.7348   -59.627868   -1760.1572 
    7100   -102727.93    -93237.91    230.48608    20721    226490.65    42.746899   -23.522525    109.98297    41.780257    435.03702    23.499534    22.154646   0.51908827    435.55611   -65.113603   -1740.5124 
    7200   -102694.65    -93211.03    230.33064    20721    226679.42    99.298648    353.66401   -3.0016218   -52.766443    435.20992    23.504654    22.159474   0.43263982    435.64256   -65.333879   -1765.5583 
    7300    -102753.2   -93213.486    231.69307    20721    226570.67   -38.472461   -35.938502   -165.25694    85.778063     435.4168    23.493432    22.148894   0.32920225      435.746   -40.623435   -1785.3359 
    7400   -102723.77   -93168.358    232.07441    20721    226456.73    9.7091455   -140.08861    90.997441    78.218605    435.21598    23.492942    22.148432   0.42960957    435.64559    -64.11055    -1812.464 
    7500   -102604.06   -93167.747    229.18172    20721    226308.98    7.9086513   -38.487523   -61.322919     123.5364    434.96445    23.492067    22.147606   0.55537593    435.51982   -73.557497   -1806.2202 
    7600   -102762.66     -93148.3    233.50614    20721    226571.24   -101.41371   -233.89713   -122.96832    52.624327    434.94398    23.506228    22.160957   0.56561088    435.50959    -47.90724   -1844.9034 
    7700   -102622.35   -93112.628    230.96466    20721    226506.71   -78.443499   -8.1018499   -52.655692   -174.57296    435.11299    23.498315    22.153497   0.48110544    435.59409   -48.337776   -1880.8641 
    7800   -102638.79   -93110.527    231.41506    20721    226586.16    45.685799    93.471926    336.83705   -293.25158    435.09007    23.503055    22.157966   0.49256313    435.58264   -55.185827     -1883.13 
    7900   -102740.54   -93119.402    233.67061    20721    226582.65   -47.183981    -85.54011    212.15022   -268.16205    435.14864    23.501291    22.156303   0.46327764    435.61192   -35.610156   -1890.1653 
    8000   -102704.26   -93088.527    233.53937    20721    226588.33    -69.31241     22.93456    7.3080615   -238.17985     435.0819    23.503388     22.15828   0.49664836    435.57855   -42.473024   -1912.8696 
    8100   -102745.11   -93078.171    234.78313    20721    226539.75   -17.754112    114.72164    -100.2862   -67.697777    435.14954    23.499042    22.154182   0.46282885    435.61237   -16.454736   -1954.2005 
    8200   -102641.53   -93059.831     232.7127    20721    226437.31    36.988264   -69.854115    204.77284   -23.953933    435.18194    23.492854    22.148349   0.44663172    435.62857   -17.334997   -1979.1433 
    8300   -102632.24   -93084.095    231.89785    20721    226562.77   -21.595935    -17.43555   -150.83079    103.47853    435.03478    23.503335     22.15823   0.52020805    435.55499   -7.4440204   -1958.9798 
    8400   -102593.07   -93087.841     230.8555    20721    226745.59       99.397   -61.568184    267.26378    92.495403    435.38477    23.503364    22.158257   0.34521684    435.72998   -16.799089   -1947.6842 
    8500   -102570.25   -93045.675    231.32543    20721    226511.25   -46.166709    7.6237865      -18.421   -127.70291     435.2423     23.49506    22.150428   0.41644983    435.65875   -24.819927   -1980.5592 
    8600   -102669.05   -93044.311    233.75813    20721    226568.62   -2.8294306   -21.447196   -90.596319    103.55522    435.36331    23.494769    22.150154   0.35594443    435.71926   -20.952265   -1988.0406 
    8700    -102594.6   -92985.488    233.37855    20721    226532.69   -61.087106   -103.82266   -125.09229    45.653638    435.28519    23.495014    22.150385   0.39500343     435.6802   -27.902518   -2038.2777 
    8800   -102612.62   -93008.192     233.2648    20721     226506.9    68.584729   -14.689766   -34.375821    254.81977    435.04388    23.500192    22.155266   0.51565975    435.55954    -41.64225   -2010.9523 
    8900   -102586.78   -92955.105     233.9266    20721    226549.96    7.5948774   -25.022865   -63.217874    111.02537    434.93763    23.505296    22.160078   0.56878642    435.50641   -46.460389   -2055.7577 
    9000   -102474.43   -92934.878    231.68905    20721    226523.96   -20.701955    101.45305   -220.98909    57.430178    435.19883    23.496892    22.152156    0.4381833    435.63702   -36.398868   -2083.9942 
    9100   -102635.97   -92956.621    235.08446    20721    226452.37    5.2980996    144.61919    164.34772   -293.07262    434.93139    23.500401    22.155464   0.57190424     435.5033   -35.966774   -2068.7813 
    9200   -102618.76   -92933.023    235.23953    20721    226484.27   -53.428093    -12.56016    134.14393   -281.86804    434.87466    23.503589    22.158469   0.60026825    435.47493   -39.290143   -2086.8525 
    9300   -102515.63   -92914.687    233.18025    20721    226458.67   0.42271184    103.71885   -124.99304    22.542329    435.11182    23.495855    22.151178   0.48169121    435.59351   -40.694519   -2108.1608 
    9400   -102518.65    -92870.76    234.32039    20721    226716.29    26.257982   -107.44829    55.305036     130.9172    435.26419      23.5051    22.159894   0.40550436     435.6697   -38.291998   -2150.0998 
    9500   -102442.77   -92867.185    232.56429    20721    226499.29    4.6440302    132.21751   -52.540007   -65.745416    435.30691    23.492696      22.1482   0.38414523    435.69105    -35.46783    -2160.211 
    9600   -102576.84    -92865.56    235.85986    20721    226633.09   -35.368097    107.98319   -119.67026   -94.417226    435.29049    23.500077    22.155158   0.39235475    435.68285   -36.381503   -2158.3808 
    9700   -102473.61   -92836.849    234.04998    20721    226606.88    -18.99083   -93.554305   -36.045245     72.62706    435.23373     23.50025    22.155321   0.42073488    435.65447   -54.392922   -2170.7007 
    9800   -102521.84   -92857.712    234.71466    20721    226672.36    39.068707    26.313683    29.732515    61.159925    435.46976    23.497275    22.152516   0.30272135    435.77248     -40.8856   -2165.1575 
    9900   -102422.67   -92844.139    232.63579    20721    226507.48   -38.452301    -201.2814    295.69574   -209.77124    435.25321     23.49457    22.149966   0.41099449    435.66421   -53.044076   -2166.2994 
   10000   -102460.17   -92837.587    233.70565    20721    226635.92    38.151714    91.154404   -54.268766    77.569503    435.22471       23.502    22.156971   0.42524319    435.64996   -46.679678   -2182.1738 
   10100   -102561.25   -92822.534    236.52626    20721    226633.43    11.886553    -12.18501   -64.517064    112.36173    435.09092    23.505484    22.160255   0.49213763    435.58306   -48.637275   -2197.3522 
   10200   -102482.69     -92767.2     235.9623    20721    226687.56   -26.277761    13.996854   -124.27724    31.447105    435.28256    23.503115    22.158022   0.39631965    435.67888   -68.055632   -2228.8508 
   10300   -102451.93   -92770.269    235.14051    20721    226665.63    -46.36643    88.923859   -174.57939   -53.443756    435.47193    23.496867    22.152132   0.30163347    435.77357   -71.007691    -2222.385 
   10400   -102419.37   -92778.309    234.15438    20721    226706.28   -15.821119   -51.677346   -57.539295    61.753284    435.40665    23.500736    22.155779   0.33427638    435.74092   -56.349963   -2230.9662 
   10500      -102458   -92795.657    234.67133    20721    226744.53   -23.796533     86.39135     96.45185    -254.2328    435.28957    23.505879    22.160628   0.39281738    435.68238    -52.91731   -2215.8927 
   10600   -102418.91   -92765.961    234.44311    20721       226711   -1.5330285    53.281963    322.48979   -380.37084    435.28796    23.504185    22.159031   0.39362232    435.68158   -54.753247   -2245.9022 
   10700    -102482.9   -92758.847    236.17018    20721    226766.72   -62.965059   -15.170187    55.328288   -229.05328    435.44472    23.502841    22.157764   0.31523996    435.75996   -52.958827   -2251.8814 
   10800   -102363.98   -92711.097    234.44174    20721    226588.66    28.835443    4.9716505    9.3901946    72.144485    435.27501    23.498191     22.15338   0.40009564     435.6751   -61.387737   -2300.7702 
   10900   -102431.06   -92697.691    236.39631    20721    226709.83   -51.563623   -163.50341    -127.0206    135.83314    435.08314    23.509655    22.164188   0.49603118    435.57917   -57.186983   -2313.4719 
   11000   -102325.05   -92654.169     234.8788    20721    226744.12    31.122091    83.973421   -165.71318    175.10603    435.26335    23.506566    22.161275   0.40592262    435.66928   -69.144552   -2348.0105 
   11100   -102406.25   -92726.996      235.082    20721     226637.4   -48.987234   -89.145763   -179.32537    121.50943    435.09436    23.505596    22.160362   0.49042226    435.58478   -43.234599   -2299.9413 
   11200   -102390.98   -92722.816    234.81281    20721    226620.21    39.164227   -141.19145     129.5315    129.15263    435.12575    23.503857    22.158722   0.47472597    435.60047   -29.800453   -2325.0741 
   11300   -102362.81   -92709.893     234.4424    20721    226503.94    12.842745   -91.976844    163.79944   -33.294357    435.28698    23.493475    22.148934    0.3941101    435.68109   -32.950668   -2339.5744 
   11400    -102402.4    -92677.34    236.19456    20721    226793.37    30.037283     246.2593    -299.3029    143.15545    435.12726    23.512795    22.167148   0.47397116    435.60123   -42.880335   -2357.0363 
   11500   -102250.33   -92659.309    232.93925    20721    226915.89    33.762658   -9.8150343    230.79227   -119.68926    435.55526    23.507586    22.162238   0.25997049    435.81523   -48.138945   -2366.3181 
   11600   -102414.52   -92674.382    236.56075    20721    226686.82   -24.928939    60.119733    186.33782   -321.24437    435.47828    23.497794    22.153006   0.29846123    435.77674   -48.539527   -2357.2422 
   11700   -102356.57   -92698.792    234.56045    20721     226825.3   -15.821046   -123.35623   -8.5777844    84.470881    435.32634    23.509072    22.163639   0.37443093    435.70077   -18.687112   -2360.2716 
   11800   -102363.67   -92644.444      236.053    20721    226713.08    -34.92333    65.761904   -510.44291    339.91101    435.21707    23.506207    22.160937   0.42906547    435.64613   -32.435698   -2402.0207 
   11900   -102365.65   -92640.497    236.19677    20721    226896.04    5.6377072    -255.7706    24.287435    248.39628    435.39465    23.510893    22.165356   0.34027363    435.73493   -16.914441   -2421.0922 
   12000    -102266.5   -92647.604    233.61617    20721     226564.1    59.780841   -29.940719    301.19955   -91.916309    435.05114    23.502962    22.157878   0.51202997    435.56317   -25.122175   -2419.5101 
   12100   -102328.34   -92648.691    235.09181    20721    226626.79    26.299726   -92.273713   -73.430978    244.60387    435.34578    23.498258    22.153444   0.36471197    435.71049   -23.787833   -2417.2857 
   12200   -102262.06   -92573.584    235.30601    20721    226674.12    85.871608    134.07984    40.823124    82.711863    435.28174     23.50244    22.157386   0.39672793    435.67847   -35.131412   -2483.6778 
   12300   -102271.35   -92536.779    236.42557    20721     226687.6   -23.561228    2.3143441    5.9715615   -78.969588    435.29209     23.50286    22.157782   0.39155578    435.68364   -34.931713   -2515.4421 
   12400   -102248.33   -92552.189     235.4923    20721    226772.48  -0.13307095   -48.406324   -140.94153    188.94864    435.50471     23.50152    22.156519   0.28524256    435.78996   -38.357891   -2496.5499 
   12500   -102279.99   -92523.493     236.9581    20721    226778.11   -47.694637   -217.91498    -131.4956    206.32667    435.30117    23.507306    22.161974   0.38701482    435.68819   -51.226278   -2511.0363 
   12600   -102234.53   -92537.217    235.52064    20721    226792.64   -21.238881    53.883117   -13.426001   -104.17376    435.02683     23.51547    22.169671   0.52418392    435.55102   -33.039929   -2515.8791 
   12700   -102300.86    -92519.46    237.56287    20721    226723.84   -3.6656229   -95.251688    129.78347   -45.528655    435.13169     23.50907    22.163637   0.47175679    435.60344   -39.445661   -2532.8121 
   12800   -102276.06   -92522.587     236.8848    20721    226687.41     12.41278   -60.716442   -99.173223      197.128    435.08527    23.508435    22.163038   0.49496504    435.58023   -27.215904   -2544.7637 
   12900   -102280.05   -92483.787    237.92387    20721    226559.88    -17.69641    194.09642    157.41084   -404.59649    434.95635    23.505304    22.160086   0.55942456    435.51578    -23.32213    -2591.317 
   13000   -102160.32   -92455.297    235.70786    20721    226579.94   -9.7559687    151.99448   -81.470518   -99.791864    434.86257    23.508879    22.163457     0.606317    435.46888   -45.084918   -2596.4787 
   13100   -102149.93   -92455.075     235.4609    20721     226633.6    77.244551    280.15186    148.94385   -197.36205    435.15935    23.503644    22.158521   0.45792384    435.61728   -37.690526   -2607.4759 
   13200   -102112.24   -92368.971    236.63694    20721    226524.69   -4.0768614    127.15533   -230.07916    90.693243    434.87782    23.505601    22.160366   0.59869051    435.47651   -59.532772   -2672.2232 
   13300   -102103.03   -92332.327    237.30319    20721    226661.24    48.253438   -98.424015   -70.351289    313.53562    434.85926    23.513186    22.167517   0.60796827    435.46723   -63.207496   -2704.7384 
   13400   -102192.84   -92312.829    239.95786    20721    226710.92    18.467857    230.70789   -169.09782   -6.2065017    435.06681    23.510153    22.164658   0.50419444    435.57101   -68.301842   -2720.5632 
   13500   -102121.08   -92296.515    238.61121    20721    226677.37   -37.968168   -61.861196   -66.900577    14.857269    434.99054    23.510474    22.164961   0.54233104    435.53287   -74.543245   -2729.5859 
   13600   -102097.94   -92307.173     237.7904    20721    226642.97    16.127517   -59.640678    98.959169    9.0640613    434.87385    23.511844    22.166252   0.60067553    435.47452   -55.346826   -2740.2593 
   13700   -102094.96   -92285.551    238.24324    20721    226561.81   -7.1400813    104.59335    23.654877   -149.66848    434.90689    23.506741    22.161441   0.58415342    435.49105   -60.148856   -2760.2102 
   13800   -102107.91   -92271.694    238.89425    20721    226618.15    31.954383    79.116383    117.61974   -100.87298    434.85032    23.511193    22.165638   0.61243856    435.46276   -87.991359   -2747.7192 
   13900   -102126.21   -92236.336    240.19737    20721     226565.3   -34.607498   -5.6473231    -81.03406   -17.141113    435.06376    23.502684    22.157616   0.50571904    435.56948   -75.046334    -2794.151 
   14000    -102028.8   -92246.873    237.57584    20721    226462.17   -60.823652   -142.02029    100.42796   -140.87862    434.71801    23.506676     22.16138   0.67859279    435.39661    -81.48583   -2779.6524 
   14100   -102080.32   -92283.991    237.92558    20721    226429.88    72.486268    237.62629   -64.063195     43.89571     434.5535    23.509449    22.163994   0.76085125    435.31435    -76.06774   -2757.9003 
   14200   -102012.83   -92247.889    237.16312    20721    226236.51   -11.029391   -15.703351   -86.985135    69.600314    434.40529    23.503417    22.158307   0.83495681    435.24024    -74.41247   -2796.5022 
   14300   -102075.24    -92224.69    239.24252    20721    226469.21   -72.214943   -34.539864    158.93675   -341.04172    434.60487    23.510102    22.164609   0.73516518    435.34003   -94.295843   -2793.2029 
   14400   -102025.92   -92211.225    238.37166    20721    226259.62    18.780145    58.984853    29.905177   -32.549594      434.452    23.503354    22.158248   0.81159907     435.2636   -81.650624   -2830.5843 
   14500   -102065.51   -92186.137    239.94248    20721    226378.95    40.970869   -91.384482    164.16018    50.136911    434.36808    23.511822    22.166231   0.85355813    435.22164   -113.91879   -2821.9909 
   14600   -102063.92   -92216.429    239.16802    20721    226239.05   -31.056916    25.146876   -226.52881    108.21119    434.47485    23.501668    22.156658   0.80017612    435.27502   -100.98976    -2805.705 
   14700   -101985.03   -92111.303    239.80535    20721    226348.26    7.4916693     78.71134    359.49108   -415.72741    434.51472    23.506261    22.160988   0.78023821    435.29496   -112.83945   -2898.8277 
   14800   -102032.38   -92094.988    241.35159    20721    226393.74   -15.201894   -50.959126    77.494614   -72.141171    434.42365    23.511086    22.165537   0.82577381    435.24943   -99.721191   -2925.6221 
   14900   -101903.54    -92123.51     237.5296    20721    226079.61   -15.934888    8.0872841   -193.48384    137.59189    434.46966    23.493525    22.148981   0.80277113    435.27243   -93.566487   -2912.3729 
   15000    -101911.1    -92070.54     238.9998    20721    226331.36   -82.890594    21.108868   -200.53535   -69.245303    434.59306    23.503265    22.158163   0.74107178    435.33413   -114.75571   -2935.5633 
   15100      -101938   -92058.315    239.95004    20721    226105.65   -15.508884   -76.004091   -138.84821    168.32565    434.56321    23.492349    22.147873   0.75599554     435.3192   -95.282259   -2977.8588 
   15200   -101970.23    -92051.69     240.8937    20721    226370.11    77.575169    78.633238    5.8982081    148.19406    434.44083    23.509394    22.163942   0.81718312    435.25802    -95.71379   -2982.9601 
   15300   -101872.33   -92027.335    239.10755    20721    226124.37   -1.1104321   -42.437856    105.32765   -66.221093    434.33785    23.499415    22.154534   0.86867437    435.20653   -103.30291   -3004.1658 
   15400   -101868.61   -92019.822    239.19966    20721    226176.26   -1.7308385    54.762152    160.35282   -220.30749    434.39468    23.500574    22.155627   0.84025831    435.23494   -110.81039   -3004.7414 
   15500   -101876.68   -92023.698    239.30142    20721    226202.32     33.08185    203.43324   -36.093732   -68.093964     434.3383    23.503453    22.158341    0.8684507    435.20675   -114.85702   -2997.2832 
   15600   -101837.54   -91955.801    239.99991    20721    226131.13   -18.005554   -77.967084     54.94739   -30.996967    434.47749     23.49599    22.151305   0.79885332    435.27635   -96.630636   -3085.2124 
   15700   -101899.63    -91942.37    241.83409    20721    226260.81    13.433696    67.773237   -56.030756    28.558606    434.58376    23.499853    22.154947    0.7457202    435.32948   -109.33658   -3084.5866 
   15800   -101823.48   -91915.512    240.63693    20721    226247.22    10.611795    46.627399    -171.0286    156.23658    434.46736    23.502294    22.157249   0.80391803    435.27128   -109.64061   -3110.8067 
   15900   -101824.61   -91912.363    240.74081    20721    226174.24    66.466859    13.535374     202.0483   -16.183099    434.58039    23.495448    22.150794   0.74740703    435.32779   -128.24765   -3101.1829 
   16000   -101831.07   -91935.958     240.3246    20721     226153.6    71.973559    94.247646    207.20871   -85.535681    434.22402    23.504014     22.15887     0.925591    435.14961   -96.128906   -3111.6098 
   16100   -101814.55    -91920.19    240.30654    20721    226158.94     26.41402    179.44397    89.957485    -190.1594    434.59542    23.494247    22.149661   0.73989179    435.33531   -110.56934   -3112.4891 
   16200   -101802.92   -91908.355    240.31141    20721    226139.06   -36.579748   -106.76078   -21.887212    18.908744    434.22932    23.503116    22.158023   0.92294013    435.15226   -108.38296   -3125.1469 
   16300   -101791.13   -91930.479    239.48778    20721    226185.13    57.833972    69.965554    -149.2614    252.79776    434.54655    23.496928    22.152189   0.76432369    435.31088   -110.77453   -3105.0483 
   16400   -101821.07   -91897.219     241.0228    20721    226191.78    74.618896    66.911039    169.57343   -12.627782    434.23722    23.505641    22.160404    0.9189891    435.15621   -97.352337   -3152.2417 
   16500   -101955.41   -91952.332    242.94696    20721    226221.51    -75.82229   -144.77497   -48.676079   -34.015824    434.11027    23.510623      22.1651    0.9824626    435.09274   -74.757845    -3113.834 
   16600    -101832.5   -91922.503    240.68614    20721     226132.3    43.184248    163.53605   -73.952372    39.969063    434.13232    23.505389    22.160167    0.9714383    435.10376   -99.508451   -3128.4291 
   16700    -101835.4   -91902.903    241.23272    20721    226124.47    31.577005    66.349573   -64.833294    93.214735    434.36303    23.498739    22.153897   0.85608337    435.21912   -93.009306   -3154.4986 
   16800   -101876.13   -91877.941    242.82813    20721    226087.69   -34.631598    18.879874   -30.249208    -92.52546    434.18388    23.501675    22.156665   0.94565774    435.12954   -88.578694    -3183.991 
   16900   -101773.44   -91861.974    240.72186    20721    225936.33    44.211011    89.170723   -159.45664    202.91895    434.13293    23.495186    22.150547   0.97113609    435.10406   -97.276828   -3198.1295 
   17000   -101783.51   -91847.573     241.3162    20721    226024.52    65.586241   -150.34328   -68.308516    415.41052    433.85742    23.507231    22.161903    1.1088897    434.96631   -110.88336   -3200.3459 
   17100   -101680.37   -91841.599    238.95628    20721    225954.37    17.876079    68.557539    60.534981   -75.464285    434.03186    23.498859     22.15401    1.0216703    435.05353   -95.010263   -3223.3189 
   17200   -101730.45    -91825.72    240.55825    20721    226089.95   -6.0706052    9.6340991    110.26432   -138.11023    434.10835    23.503837    22.158703   0.98342506    435.09177   -119.80835   -3208.9611 
   17300   -101744.73   -91835.132    240.67655    20721    226116.52    -40.91562   -194.43478    240.14626   -168.45834    434.15306    23.504008    22.158864   0.96106802    435.11413   -94.397058   -3224.7424 
   17400    -101770.1   -91803.571    242.05921    20721    226156.82   -15.704807  -0.75470184   -39.651895   -6.7078253    434.27784    23.502726    22.157655   0.89868034    435.17652   -109.59264   -3243.1131 
   17500   -101764.04   -91802.657    241.93434    20721    226231.73    87.787636    11.415388    271.11362   -19.166101     434.3576    23.504459    22.159289   0.85880137     435.2164   -107.77261   -3249.0195 
   17600   -101699.04   -91804.339    240.31464    20721    226116.48    -44.28788   -55.071415   -105.49623    27.704004    434.33926    23.498967    22.154112   0.86796861    435.20723   -100.00308   -3254.4313 
   17700   -101642.07   -91768.879     239.7922    20721    226246.75   -27.622566   -6.9511827    86.792442   -162.70896    434.37952    23.504646    22.159466   0.84783932    435.22736   -84.485915   -3301.4192 
   17800   -101722.12   -91775.564    241.57406    20721    226384.74    31.560041    23.806614   -138.22916    209.10267    434.44466     23.51005    22.164561   0.81526919    435.25993   -99.361067   -3281.6711 
   17900   -101703.53    -91759.54    241.51181    20721    226197.06   -41.417835    17.906373    2.7290865   -144.88896    434.33228    23.503343    22.158237   0.87145843    435.20374    -102.3201   -3296.3856 
   18000   -101720.82   -91779.469    241.44775    20721     226214.8     33.69247    107.89507    290.56739   -297.38506    434.51976    23.499193    22.154325   0.77772066    435.29748   -100.14392     -3283.34 
   18100   -101674.22   -91733.037     241.4436    20721    226275.39   -7.0523276    73.435836   -47.745802   -46.847017    434.49565    23.502992    22.157907    0.7897775    435.28542   -97.241506   -3329.0496 
   18200   -101729.35   -91722.419    243.04036    20721    226441.11    9.4491165    201.92503   -60.288522   -113.28916    434.52568    23.510785    22.165253   0.77475979    435.30044   -112.93038   -3322.3114 
   18300   -101604.26   -91692.161    240.73727    20721     226287.3    84.250318    49.149463    278.31351   -74.712024    434.41958    23.505669     22.16043   0.82780956    435.24739   -127.14884   -3347.4423 
   18400   -101648.97    -91700.53    241.61993    20721    226266.09   -20.412744   -131.33624    123.08746   -52.989446    434.36142    23.506141    22.160875   0.85688807    435.21831   -111.20116   -3351.4236 
   18500   -101721.21   -91683.595     243.7856    20721    226161.03   -27.895373    112.14967   -133.56633   -62.269452    434.04766    23.509175    22.163736    1.0137725    435.06143   -123.16825   -3359.7241 
   18600   -101750.52   -91713.204    243.77849    20721    226298.25    4.9587282     -139.739   -93.131808    247.74699    434.16143    23.513224    22.167553   0.95688511    435.11831   -116.47072   -3335.1938 
   18700   -101553.67   -91663.305    240.20947    20721    226349.89    -16.48789   -39.455347   -366.59575    356.58743    434.22406    23.514211    22.168484   0.92557212    435.14963   -108.43658   -3391.3377 
   18800   -101623.39   -91662.904     241.9124    20721    226349.18   -93.521651   -240.54343   -139.12031    99.098795    433.89928    23.522973    22.176744    1.0879581    434.98724   -123.47292   -3375.4618 
   18900   -101550.81   -91581.232    242.13324    20721    226334.34    45.086755   -7.1424432    117.12995    25.272758    433.93183     23.52132    22.175185    1.0716853    435.00351    -124.4574   -3461.9788 
   19000   -101573.09   -91598.471    242.25572    20721     226246.7   -80.279278   -138.92514   -170.44262    68.529921    434.09547    23.512332    22.166712   0.98986357    435.08534   -107.85369   -3460.1131 
   19100   -101653.52   -91634.882    243.32484    20721    226418.61    25.105128   -16.870351    21.558066    70.627669    434.44353    23.511839    22.166247   0.81583423    435.25937   -109.42042   -3422.9335 
   19200   -101645.53   -91645.408    242.87507    20721    226351.63    28.963021   -64.815355    51.755243    99.949173     434.5087    23.506598    22.161306    0.7832511    435.29195   -84.118799    -3440.593 
   19300   -101657.74   -91636.872    243.37895    20721    226397.24   -75.288719   -101.65665   -5.1601044    -119.0494    434.48343     23.50965    22.164184   0.79588474    435.27932   -114.06988   -3415.8236 
   19400   -101664.62    -91588.23    244.72747    20721    226487.79   -14.551391   -23.885552   -259.24455    239.47593    434.34441    23.518114    22.172163   0.86539402    435.20981   -106.71237   -3473.1792 
   19500   -101543.09   -91565.773    242.32117    20721    226438.99   -34.255173   -156.33731   -142.05546    195.62725    434.46628    23.512282    22.166665   0.80446045    435.27074   -97.350022    -3505.057 
   19600   -101487.61   -91567.339    240.93586    20721    226410.66    74.995709    30.792837    9.2129557    184.98133    434.48934    23.510187     22.16469   0.79293018    435.28227   -116.36676   -3490.8774 
   19700   -101616.33   -91592.198    243.45818    20721    226344.58    1.9372725    6.0132912   -238.77222    238.57075    434.20033    23.514578     22.16883   0.93743606    435.13776   -111.44055   -3473.9082 
   19800   -101500.15   -91552.218    241.60757    20721    226415.77   -24.165409   -1.6939631   -128.02967    57.227404    434.28197    23.516065    22.170231   0.89661553    435.17858   -109.47261   -3512.6486 
   19900   -101493.25   -91547.855    241.54592    20721    226480.97   -21.993643   -8.7223313    172.83212   -230.09072    434.24328    23.520499    22.174411   0.91596087    435.15924   -124.74776   -3498.6278 
   20000   -101568.74   -91532.102    243.76201    20721    226340.96    14.118393    110.75118    120.57139   -188.96739     434.2762    23.512336    22.166715   0.89949775     435.1757   -139.09553   -3510.1964 
   20100   -101505.78    -91511.67    242.72916    20721    226183.62    32.083729    54.974949   -26.935548    68.211785    434.25237    23.504807    22.159618    0.9114132    435.16379   -139.63235   -3534.6605 
   20200   -101512.89   -91503.483    243.10067    20721    226408.24    3.6314774    61.804528   -13.820371   -37.089725    434.21119    23.517591     22.17167   0.93200501    435.14319   -128.89009   -3547.2064 
   20300   -101533.73   -91490.653    243.91837    20721    226385.32   -75.815813     46.69867   -366.16552    92.019415    434.13895    23.518356    22.172391   0.96812498    435.10708   -158.65174   -3527.2479 
   20400   -101546.91   -91495.218    244.12755    20721    226247.67    43.809622    141.10816    108.15348   -117.83278    434.15397    23.510799    22.165266   0.96061612    435.11458   -166.76507   -3528.7771 
   20500   -101513.31   -91562.187    241.68505    20721    226135.19   -100.12348   -81.371953    87.049023   -306.04751    434.10837    23.506188     22.16092   0.98341259    435.09179   -149.08576   -3474.8435 
   20600   -101595.57   -91534.822    244.34749    20721    226173.37    37.034311   -61.075077    18.864729    153.31328    433.79538    23.516652    22.170784    1.1399095    434.93529   -151.54401   -3506.4097 
   20700   -101641.28   -91552.178     245.0361    20721    226039.46    -100.1341    52.981062   -490.03019    136.64682    433.79671    23.509653    22.164186    1.1392437    434.93596   -142.65313   -3496.6957 
   20800   -101639.77   -91562.006    244.76074    20721    225907.78   -24.475652    26.216948    14.174206   -113.81811    433.81723    23.502248    22.157205    1.1289874    434.94621   -148.70934   -3488.9071 
   20900   -101487.94   -91541.272    241.57682    20721    225923.68    11.942853   0.35504897   -75.402384    110.87589    433.67852    23.506833    22.161528    1.1983385    434.87686   -157.44313   -3502.7675 
   21000   -101537.82   -91495.628    243.89697    20721    225997.21   -1.3177264    106.49256   -123.07576    12.630018    433.88678    23.505016    22.159814    1.0942106    434.98099   -166.75484   -3537.5833 
   21100   -101501.17   -91491.578    243.10507    20721    226006.71   -34.832372   -54.105375   -124.03654      73.6448    433.74382    23.509383    22.163931    1.1656875    434.90951   -163.03485   -3543.3929 
   21200   -101569.04   -91537.476    243.63869    20721    225968.94    31.258053   -73.972909    272.97107     -105.224    433.75351    23.507156    22.161832    1.1608467    434.91435   -156.07315   -3512.7931 
   21300   -101498.43   -91439.524    244.30285    20721    225876.55   -76.337115   -243.00041   -62.217012    76.206078    433.81582    23.500662     22.15571    1.1296903    434.94551   -176.38347   -3585.9673 
   21400   -101586.43   -91474.033    245.60184    20721    225928.57   -13.653556   -32.552491   -29.699259    21.291083    433.67207    23.507263    22.161933    1.2015674    434.87363    -180.6344   -3551.1697 
   21500   -101504.73   -91467.802    243.76898    20721    226050.72   -37.732423   -161.13331    -17.15804    65.094079    433.74185    23.511725     22.16614    1.1666745    434.90853   -143.66289   -3589.3679 
   21600   -101414.43   -91448.931    242.03429    20721    225876.15    40.050144    52.943625    113.20137   -45.994561    433.73625    23.502797    22.157722    1.1694767    434.90572   -147.33145    -3617.052 
   21700   -101490.75   -91421.093    244.56388    20721    225960.64   -49.404964   -56.947808    116.22747   -207.49455    433.68956    23.508457    22.163059    1.1928178    434.88238    -139.0038   -3646.3878 
   21800    -101427.3   -91385.202     243.8946    20721    226007.05   -17.155697   -12.332891    36.234007   -75.368206    434.08448    23.500174    22.155249   0.99535853    435.07984   -145.30063   -3675.9233 
   21900   -101504.89    -91426.21    244.78293    20721     226150.2   -79.217704   -204.86771    271.10664   -303.89205    434.01855    23.509401    22.163948    1.0283228    435.04688   -125.06829   -3649.8499 
   22000   -101520.88   -91428.358    245.11931    20721    225950.35    -54.14014   -73.801245   -189.32761    100.70843    433.90591    23.502061    22.157028     1.084643    434.99056   -124.21848   -3657.7485 
   22100   -101418.74   -91395.165    243.44473    20721    226130.43   -64.883654   -21.433934   -118.00032   -55.216705    433.73316    23.516106     22.17027    1.1710221    434.90418   -166.85471   -3641.7158 
   22200   -101477.51    -91409.47    244.52462    20721    226038.52    41.554034    143.27892   -39.570609    20.953796    433.85992    23.507891    22.162525    1.1076419    434.96756   -134.72694   -3671.0501 
   22300   -101523.01   -91367.646    246.64543    20721    226064.55   -68.022383   -351.02526    303.58417   -156.62607    433.88209    23.508644    22.163235     1.096554    434.97865   -124.95059   -3717.5802 
   22400   -101451.64    -91371.26    244.82446    20721    225860.93   -7.5951696    24.280384   -124.32539    77.259501    433.44438    23.509916    22.164434    1.3154116    434.75979   -107.35727   -3741.7485 
   22500   -101452.05    -91385.94    244.47777    20721    226083.38   -80.567383   -157.55757   -158.76136    74.616781    433.75369    23.513103    22.167439    1.1607543    434.91445   -137.98924     -3687.27 
   22600   -101389.11   -91414.828    242.24756    20721    225843.74    27.048879    54.912297    67.805951    -41.57161    433.45804    23.508651    22.163242    1.3085798    434.76662   -125.23721   -3683.4807 
   22700   -101465.84   -91415.244    244.10094    20721    225925.03   -8.9436465    57.538838    27.678827    -112.0486    433.31026    23.516891     22.17101    1.3824686    434.69273   -127.58225   -3678.9176 
   22800   -101411.99   -91364.591    244.02341    20721    225893.37    3.5255714    -185.0206    170.68005    24.917264    433.61394    23.507007    22.161692    1.2306308    434.84457   -131.93975   -3727.6224 
   22900   -101460.83   -91382.221    244.78127    20721    225927.17    61.534788   -9.7179751   -85.039866    279.36221    433.38273    23.515036    22.169261    1.3462355    434.72896   -149.17427    -3695.468 
   23000    -101463.1   -91381.393    244.85651    20721    225926.87   -8.9376619   -70.798329   -149.78563    193.77097    433.35592    23.515748    22.169932    1.3596425    434.71556   -134.31204   -3709.6574 
   23100    -101422.2   -91373.094    244.06489    20721    225860.39   -10.132977   -176.11729    175.97112   -30.252754     433.3582    23.512226    22.166612    1.3585011     434.7167   -155.17934   -3700.2446 
   23200    -101457.3   -91354.931    245.35832    20721    225823.97   -3.1488093   -10.326178    156.35962   -155.47987    433.31105    23.511609     22.16603    1.3820753    434.69312   -138.61274    -3737.988 
   23300   -101457.88    -91334.69    245.86403    20721    225933.49   -40.915714   -108.46793   -162.06029    147.78108    433.42547    23.514205    22.168478     1.324867    434.75033   -127.76431   -3765.1708 
   23400   -101451.25    -91285.89     246.8882    20721     225988.5    13.751061   -97.444911   -166.54336    305.24145    433.35984    23.518849    22.172856    1.3576801    434.71752   -145.36007    -3799.453 
   23500   -101434.22   -91309.523    245.90079    20721    226070.01    67.332294   -90.930556   -89.851337    382.77877    433.43562    23.521033    22.174915    1.3197923    434.75541   -141.75295    -3779.232 
   23600   -101382.54    -91327.81     244.2014    20721    226061.65    37.899371    59.813283    -2.251579    56.136409    433.58354    23.516586    22.170722    1.2458321    434.82937   -133.61804   -3769.8634 
   23700   -101448.15   -91308.657    246.26013    20721    225970.95    40.652104    154.38005     160.8576   -193.28134    433.68955    23.508994    22.163565    1.1928258    434.88237   -134.70353   -3791.4924 
   23800   -101409.28   -91299.867    245.52957    20721    225971.09     43.18934     136.9685    -142.1927    134.79222     433.4864    23.514509    22.168764    1.2944001     434.7808   -120.00054   -3818.0005 
   23900   -101361.52   -91291.946    244.56179    20721    226016.46    3.0453765    17.290027   -265.60888    257.45499    433.69494    23.511215    22.165659    1.1901319    434.88507   -120.80488   -3821.2738 
   24000   -101376.12   -91267.839    245.50199    20721    226067.16   -14.826643     40.88344    -237.8756    152.51223    433.96852    23.506439    22.161156    1.0533399    435.02186   -144.06122   -3821.6808 
   24100   -101362.01   -91285.877    244.72106    20721    226064.45      49.0131   -217.63569    197.21897    167.45603    433.60179    23.516236    22.170393    1.2367064    434.83849   -117.48659   -3834.5807 
   24200   -101349.64   -91217.763    246.07513    20721    226170.49    5.3364736    123.85235    27.652474   -135.49541    433.48535     23.52491     22.17857    1.2949273    434.78027   -167.21346   -3849.1341 
   24300   -101327.05   -91233.099    245.15404    20721    225945.76    121.12853    175.10874   -29.533323    217.81018    433.36619    23.516452    22.170596    1.3545075    434.72069   -148.12712   -3865.4097 
   24400   -101213.16   -91237.051    242.29191    20721    225910.98    6.4799269   -7.2149506   -96.584372     123.2391    433.43842    23.512683    22.167042     1.318389    434.75681   -140.66478   -3862.3102 
   24500   -101304.26   -91181.844     245.8453    20721    226018.95   -13.834186   -137.86495    23.434688    72.927706    433.39106    23.519586     22.17355    1.3420711    434.73313   -142.02691   -3915.2424 
   24600   -101314.09   -91174.432    246.26392    20721    226126.82   -1.0481943    17.587505    210.16328   -230.89537    433.49249    23.522445    22.176246    1.2913575    434.78384   -129.44986   -3934.0517 
   24700   -101325.88   -91157.978    246.94999    20721    226109.12   -141.98382    47.104596   -48.251075     -424.805    433.57639    23.519248    22.173232    1.2494054    434.82579   -134.95064   -3939.1529 
   24800   -101203.21   -91173.956    243.58259    20721    226030.32    54.122152    111.15904    160.64919   -109.44177    433.59172    23.514735    22.168977     1.241742    434.83346   -154.59427   -3914.2819 
   24900   -101327.47   -91132.025    247.61898    20721    226113.53   -79.719591   -100.58146   -216.34005    77.762735    433.68581    23.516511    22.170651    1.1946956     434.8805   -166.02689   -3940.8707 
   25000    -101335.6    -91168.59     246.9283    20721    226033.26     -27.8543   -40.357539    -7.852934   -35.352427    433.70785    23.511739    22.166152    1.1836756    434.89152   -156.02064   -3919.5657 
   25100   -101310.67   -91163.424    246.44841    20721     226289.5   -4.4983219    133.39116    18.206009   -165.09213    433.83449    23.521628    22.175476    1.1203572    434.95484   -156.23851   -3919.8347 
   25200      -101243   -91145.811    245.23256    20721    226066.96    86.458154    132.63337    149.43907   -22.697983    433.59835     23.51646    22.170604    1.2384254    434.83677    -175.3161   -3929.8847 
   25300   -101242.37   -91168.708    244.66107    20721    226089.03    39.143834    131.60755   -314.65623    300.48019    433.67909    23.515419    22.169622    1.1980537    434.87715   -179.64614    -3898.859 
   25400   -101372.79   -91174.922    247.67775    20721    226153.65   -57.881873   -270.62479    105.67823   -8.6990546    433.71403    23.517832    22.171897    1.1805846    434.89462   -179.81105     -3888.62 
   25500   -101364.23   -91141.635    248.27846    20721    226181.36    26.793912    91.605249   -72.718485    61.494972    433.91135    23.513924    22.168213    1.0819226    434.99328   -174.72835   -3931.9509 
   25600   -101220.26   -91135.607    244.92811    20721    226003.57    24.940415    31.128293   -3.6422012    47.335154    433.99621    23.502383    22.157332    1.0394974     435.0357   -181.38212   -3935.4282 
   25700   -101315.71   -91164.811    246.53696    20721    226127.49     29.04045   -54.509804    87.192495    54.438658    433.94235    23.510284    22.164781    1.0664268    435.00877   -169.64503   -3917.7826 
   25800   -101190.33   -91088.744    245.33944    20721    226192.77    62.027389   -29.817367    334.29634   -118.39681    433.86574    23.515753    22.169937    1.1047277    434.97047   -186.81681   -3974.5062 
   25900   -101317.11   -91052.006     249.3108    20721    226292.28    -34.58076   -19.075649    118.86773   -203.53436    434.13853    23.513534    22.167845   0.96833313    435.10687   -201.12124    -3992.267 
   26000   -101227.38   -91080.385    246.44235    20721    226314.48   -37.728453    162.06439    83.175189   -358.42494     434.0662    23.516647     22.17078    1.0044983     435.0707   -178.76273   -3984.1466 
   26100   -101231.07   -91065.734    246.88775    20721    226324.25     43.89078    24.892074    102.13328    4.6469833    434.30314    23.510739     22.16521   0.88602935    435.18917   -185.86659   -3999.6326 
   26200   -101134.66    -91077.86    244.25152    20721    226177.69     61.25461    0.7563415    209.08451   -26.077022    433.88763    23.514376    22.168639    1.0937839    434.98142   -201.28485   -3974.8969 
   26300    -101217.6   -91124.032    245.14473    20721     226300.7     118.1694   -185.84429    73.015947    467.33654    433.98448    23.518145    22.172192    1.0453587    435.02984   -166.68724   -3966.5211 
   26400   -101116.93   -91081.413    243.73482    20721    226228.81   -34.471654   -47.442422   -192.90509    136.93255    434.03261    23.513105    22.167441    1.0212942    435.05391    -181.5495   -3987.2625 
   26500   -101286.13   -91069.002    248.14564    20721    226245.94    -40.90572    -172.2835    71.478317   -21.911975    434.05226    23.513463    22.167778    1.0114679    435.06373   -172.74637   -4010.2125 
   26600   -101295.46   -91097.074    247.69037    20721    226249.57    75.405619    193.62596   -106.97375    139.56466    434.17321    23.510377    22.164868   0.95099688     435.1242   -200.10676   -3962.8878 
   26700   -101255.62   -91086.654    246.97587    20721    226184.15   -78.943814   -248.06233    52.146723   -40.915834    433.92764    23.513628    22.167934    1.0737791    435.00142   -183.15107   -3984.2738 
   26800   -101252.66   -91077.437     247.1278    20721    226061.99    -28.30405   -2.2528138   -33.523187   -49.136148    433.99726    23.505392    22.160169    1.0389694    435.03623   -169.37075   -4013.9854 
   26900   -101208.87   -91092.236    245.70495    20721    226185.41    38.360739    31.046298   -65.043502    149.07942    434.12849    23.508253    22.162867   0.97335627    435.10184     -175.231   -3995.1697 
   27000   -101313.64   -91130.625    247.31694    20721    226011.35     -15.2286    183.71723   -156.03479   -73.368237    433.85316    23.506662    22.161366    1.1110217    434.96418   -150.45909   -3986.0511 
   27100   -101190.97   -91078.207    245.61071    20721    225954.29   -41.671438   -240.90261   -95.125357    211.01365    433.69377    23.508013     22.16264    1.1907132    434.88449    -169.1001   -4020.1829 
   27200   -101261.54   -91043.144     248.1764    20721    226069.83    16.376135   -60.989175    3.8312436    106.28634    433.57617    23.517211    22.171312    1.2495162    434.82568   -172.44908   -4054.3748 
   27300   -101276.06   -91027.953    248.89793    20721    225944.28   -82.924133    -187.9099   -179.08785    118.22535    433.55769    23.511181    22.165627    1.2587534    434.81645   -189.00753   -4051.4974 
   27400    -101224.7   -91011.334    248.05416    20721    225859.72   -31.879195   -106.70325   -101.54434       112.61    433.36667    23.511961    22.166362     1.354266    434.72093   -178.47136    -4085.822 
   27500   -101228.64   -91022.673    247.87441    20721     226024.7    18.663717    23.822392    -58.94264    91.111398    433.59192    23.514437    22.168696    1.2416409    434.83356    -183.4258   -4066.1121 
   27600   -101244.08   -91000.862    248.77933    20721    225992.42    4.5114255   -63.171665    306.08826   -229.38231    433.74529      23.5086    22.163193    1.1649539    434.91025   -181.81027   -4092.9004 
   27700   -101162.33   -90960.126    247.78316    20721    225796.98    61.522647    128.10667    117.18223   -60.720952    433.52321    23.504451    22.159282    1.2759959     434.7992   -183.72932   -4140.9869 
   27800   -101187.84    -90975.02    248.04089    20721     225998.4    4.6847012    267.23884   -189.18918   -63.995561    433.72428     23.50948    22.164023    1.1754598    434.89974   -179.83385   -4124.9041 
   27900   -101190.94   -90967.834    248.29079    20721    225922.92   -16.793272   -174.40227   -46.086261    170.10872    433.51201    23.511308    22.165747    1.2815972     434.7936    -177.9971   -4133.9612 
   28000   -101098.39   -90930.274    246.95521    20721    225829.46    33.777871    104.51111   -130.92616    127.74866    433.65391    23.502599    22.157536    1.2106471    434.86455   -187.09557    -4168.331 
   28100   -100993.88   -90938.588    244.21509    20721    225911.57    114.65994    17.723578    269.92463    56.331621    433.72737     23.50488    22.159686    1.1739153    434.90128   -189.08004   -4159.6811 
   28200   -101030.11   -90925.175    245.42077    20721    226123.34    114.67833    149.97299    52.681567    141.38045     434.0392    23.507446    22.162105    1.0180018     435.0572   -182.54168   -4174.3776 
   28300   -101110.96   -90924.648    247.39702    20721    226110.02      41.6095    3.9140767    273.19226   -152.27784    434.06483    23.506059    22.160798    1.0051867    435.07001   -163.91145   -4192.9669 
   28400   -101156.59   -90933.708    248.28532    20721    225925.13   -61.410873   -35.135564   -104.29255   -44.804508     433.8951    23.501042    22.156068    1.0900517    434.98515   -177.64787   -4171.4151 
   28500   -101198.63   -90925.122     249.5149    20721    226232.94   -97.368737   -78.608968   -27.354193   -186.14305    433.99674    23.514292    22.168559    1.0392321    435.03597   -164.51215   -4182.4615 
   28600   -101099.39    -90898.76    247.74492    20721    225909.99    25.030285   -46.392125   -264.19822     385.6812     433.8314    23.501979    22.156952    1.1219005     434.9533   -181.06374   -4209.0327 
   28700    -101145.9   -90931.133    248.08829    20721    226274.12     16.13037   -1.5742461   -192.87095    242.83631    434.37683    23.506141    22.160875   0.84918441    435.22602   -169.82219   -4177.6449 
   28800   -101072.52   -90929.806    246.33834    20721    225964.15    30.809509   -296.66161    42.458506    346.63163    434.13675    23.496529    22.151813    0.9692264    435.10597   -181.79646     -4179.53 
   28900   -101071.91   -90855.677    248.12389    20721    226283.82   -38.714524   -61.943648   -291.72779    237.52787      434.071    23.514924    22.169155    1.0021018     435.0731   -201.10856    -4222.837 
   29000    -101042.5   -90880.927    246.79628    20721    226114.73    3.7753677     14.50925    30.544751   -33.727898    434.01161    23.507745    22.162387     1.031794    435.04341   -189.03047   -4218.1497 
   29100   -101063.01   -90851.388     248.0119    20721    226044.15   -3.0953282     133.9101   -152.94354    9.7474566    433.92981    23.506291    22.161017    1.0726957     435.0025    -188.0096   -4251.3879 
   29200   -100972.48   -90879.215    245.13732    20721    226115.82    56.077804    152.86355   -83.876836    99.246698    433.98491    23.508525    22.163123    1.0451451    435.03005   -178.05518   -4232.4315 
   29300    -101056.8   -90870.121    247.40606    20721    226077.61   -12.036576    54.032126    109.44021   -199.58206    433.78715    23.511896      22.1663    1.1440236    434.93118   -191.26545   -4228.9266 
   29400   -101041.98   -90838.193     247.8215    20721    226074.43    67.956804    46.183431    89.876185    67.810796    434.04128    23.504847    22.159655    1.0169619    435.05824    -199.5931   -4258.7802 
   29500   -101049.53   -90825.457    248.31425    20721    226199.46    26.232749   -5.9731852    89.866666   -5.1952324     433.8689    23.516015    22.170184    1.1031499    434.97205   -219.79954   -4247.3579 
   29600   -101020.01   -90803.578    248.12871    20721    225877.23   -2.2845484    30.555772   -82.225952    44.816535    433.70389     23.50373    22.158602    1.1856559    434.88954   -210.71509   -4286.5942 
   29700   -101043.33   -90819.428    248.31013    20721    225919.18    -14.32026   -47.433262     -60.2768    64.749282    433.73108    23.505175    22.159965    1.1720578    434.90314   -200.94611   -4279.7379 
   29800    -101042.6   -90820.029    248.27774    20721    225965.03   -23.388055    117.87059   -286.27694    98.242181    433.77953    23.506248    22.160976    1.1478352    434.92736    -191.6945   -4287.1375 
   29900    -101106.6   -90832.271    249.53474    20721    226081.52   -21.526019   -172.96407    222.16315   -113.77714     433.6581    23.515597     22.16979    1.2085511    434.86665   -197.92942   -4268.1232 
   30000   -101059.63   -90849.645    247.97201    20721    225999.02    52.057766    51.973112    305.53001   -201.32982    433.59673     23.51297    22.167314    1.2392369    434.83596   -179.63853   -4274.0357 
   30100   -100962.03   -90823.641    246.23312    20721    226034.05    48.688757    81.698583    271.55747   -207.18978     433.4825     23.51789    22.171952    1.2963484    434.77885   -189.39103   -4290.3016 
   30200    -101132.3   -90863.825    249.39269    20721    226095.79    54.499822    124.65936   -166.71271    205.55281    433.63617    23.516934    22.171051    1.2195135    434.85569   -186.43113    -4254.695 
   30300   -101083.76   -90856.938    248.38112    20721    225991.08    8.3431945   -68.899347   -94.639192    188.56812    433.63514    23.511516    22.165942    1.2200319    434.85517    -165.6917   -4284.0027 
   30400   -101169.49   -90821.614    251.32097    20721    226052.27   -60.593973    84.893168   -98.179087     -168.496    433.35377    23.522331    22.176139    1.3607174    434.71448   -169.98161   -4312.0627 
   30500   -101079.74   -90853.259    248.37272    20721    226093.41   -68.048765   -255.46265    133.06417   -81.747822    433.30844    23.525702    22.179317     1.383378    434.69182   -174.92524   -4273.7568 
   30600   -101110.96   -90831.523    249.65877    20721       225937   -40.596387   -103.57352   -204.94006    186.72442    433.29053    23.518049    22.172102    1.3923343    434.68287   -145.62685   -4332.6019 
   30700   -101020.11   -90809.344    247.99097    20721    225879.07     42.17384   -13.911553    129.25937    11.173704    433.41013     23.51179      22.1662    1.3325373    434.74266   -167.43312   -4339.2876 
   30800   -100998.31   -90772.958    248.34543    20721    226208.07   -29.246568    -234.3922    101.67903    44.973462    433.30586    23.531736    22.185006    1.3846679    434.69053   -152.76733   -4377.1522 
   30900   -101060.65   -90881.865    247.21427    20721    226066.84    74.147187  -0.87465749   -85.647477     308.9637     433.1764    23.527905    22.181393    1.4493998     434.6258   -144.44367   -4289.0026 
   31000   -100943.47   -90862.479    244.83918    20721    226001.45     41.87358    88.684547   -33.392168    70.328362    433.17514    23.524536    22.178217    1.4500285    434.62517   -139.84133   -4313.4485 
   31100      -101014   -90832.168    247.28823    20721    226074.22    21.500817   -146.06076    207.30992    3.2532885    433.13411    23.529437    22.182838     1.470546    434.60465   -179.27662   -4302.8752 
   31200   -101082.53   -90882.844    247.72191    20721    225824.67    3.0006385    120.95864    109.24693   -221.20366    433.04103    23.518975    22.172974    1.5170861    434.55811   -153.33573   -4286.7121 
   31300   -101070.48   -90830.235    248.70694    20721    226119.22   -24.283178   -22.887933    49.792502   -99.754104    433.44451    23.523352    22.177101    1.3153458    434.75985   -168.93819   -4315.8842 
   31400    -101113.4   -90887.073    248.36907    20721    225969.43    33.603031   -47.442974   -1.5292372     149.7813    433.33388    23.518561    22.172584    1.3706586    434.70454   -170.40133   -4265.8961 
   31500   -101064.08    -90851.98    248.02332    20721    226235.54   -13.006218    46.237134   -199.75353    114.49774    433.15492    23.537266    22.190218    1.4601395    434.61506   -181.63053   -4281.7164 
   31600   -101053.97   -90814.588    248.68594    20721    226124.09   0.58651426   -29.725453   -66.066714     97.55171    433.71917    23.516156    22.170317    1.1780144    434.89719   -182.27835   -4323.7826 
   31700   -101011.27   -90793.236    248.16753    20721    225988.12   -34.372582   -42.853243     167.0176    -227.2821    433.66316    23.510602    22.165081    1.2060202    434.86918    -203.3665   -4327.0148 
   31800   -101057.26   -90773.536     249.7629    20721    226043.31   -54.890808    124.68164    -23.04695   -266.30711    433.45406    23.519144    22.173134    1.3105697    434.76463   -195.96697   -4353.8691 
   31900   -101076.58   -90726.815      251.367    20721    226125.77    13.325534   -28.420463    47.956173    20.440893     433.7627    23.515063    22.169286    1.1562494    434.91895   -205.35603   -4393.1236 
   32000    -101004.4   -90769.894    248.56754    20721    226317.72   -13.316158    87.538238    90.412595   -217.89931    433.82652    23.523311    22.177062    1.1243394    434.95086   -185.78398    -4365.198 
   32100   -100976.83   -90771.513    247.85868    20721    226179.79   -30.795402   -31.275903   -175.42331      114.313    434.03646    23.510454    22.164941    1.0193676    435.05583   -175.66207   -4376.3824 
   32200   -100937.83   -90796.972    246.29318    20721    226213.03    57.227157    71.486744    59.024586    41.170143    433.92315    23.515251    22.169463    1.0760258    434.99917   -178.11933   -4351.1904 
   32300   -100912.82   -90757.763    246.63805    20721     226234.5    56.381263   -16.245948    41.975957    143.41378    433.87783    23.517595    22.171673    1.0986853    434.97651   -184.63056   -4384.9686 
   32400   -100984.97   -90768.358    248.13308    20721    226299.28    20.124908     38.47347    -24.37068    46.271935     434.2161    23.511798    22.166208   0.92954896    435.14565   -176.36903   -4380.3509 
   32500   -100964.39   -90746.853    248.15552    20721    226240.96   0.77990555    -216.0435    67.772436    150.61078    433.81082    23.519747    22.173702    1.1321919    434.94301   -184.73671   -4396.4398 
   32600   -101061.36   -90797.609    249.27784    20721    226122.66   -94.622862   -4.2863196   -187.87308   -91.709184    433.74583    23.515358    22.169565    1.1646845    434.91052   -184.93594   -4346.6682 
   32700   -100933.88   -90724.365    247.96066    20721    226022.53    123.09351     177.5211   -69.553767    261.31319    433.77382    23.509393    22.163941    1.1506919    434.92451   -207.56336   -4410.4862 
   32800   -100919.59    -90728.19     247.5207    20721    226002.86    -11.14612   -37.035424    28.101216   -24.504151    433.50107    23.515764    22.169948    1.2870657    434.78813   -188.44534   -4419.4778 
   32900   -101064.84   -90705.783    251.59269    20721    226127.19    38.767517    90.332275    100.93631   -74.966036    433.56033    23.520624    22.174529    1.2574326    434.81777   -219.46195    -4413.961 
   33000   -100934.33   -90705.873    248.42067    20721    226100.81    31.533735    35.718399   -60.129664    119.01247    433.60499    23.518041    22.172094    1.2351053    434.84009   -203.70184   -4427.8073 
   33100    -101006.4   -90701.334    250.28132    20721    225923.58   -109.19177   -202.32719   -65.624262   -59.623864    433.48244    23.512144    22.166535    1.2963779    434.77882   -209.95319    -4429.172 
   33200    -101015.6   -90690.913    250.75797    20721    225988.63   -59.168564   -22.687368   -108.96788   -45.850441    433.48546    23.515447    22.169648    1.2948681    434.78033   -201.45533   -4448.2072 
   33300   -101043.25   -90687.927    251.50189    20721    226105.86   -91.147756   -192.64703   -343.32361    262.52736    433.73912    23.514666    22.168913    1.1680384    434.90716   -198.78809   -4449.5432 
   33400   -101005.71   -90680.565    250.76895    20721    226064.13   -13.686133    156.19617   -233.06458    35.810012    433.46096     23.52004    22.173978    1.3071189    434.76808   -189.61181     -4473.07 
   33500   -100942.83   -90702.711    248.70407    20721    226029.31     12.63808    -10.39692    29.276728    19.034432    433.42415    23.519227    22.173212     1.325527    434.74967     -173.992   -4470.9969 
[...]
  491800   -95554.357   -83895.714    283.15594    20721    221331.65    61.761264    230.06846    39.944324    -84.72899    423.40038    23.547422    22.199793    6.3374107    429.73779    5436.0285   -24048.595 
  491900   -95572.661   -83914.396    283.14677    20721     221057.8    71.237866    37.969098     -101.723     277.4675    423.05212    23.542534    22.195185    6.5115382    429.56366    5432.7358   -24037.804 
  492000   -95512.113   -83942.733    280.98799    20721    221129.01    6.1105436   -91.553609   -198.72628    308.61152    423.15677    23.543413    22.196014    6.4592136    429.61599     5441.539   -24014.528 
  492100   -95620.502   -83912.268    284.36038    20721    221330.28   -57.234134   -240.26664   -142.28652    210.85077     423.3438    23.548922    22.201208    6.3657005     429.7095      5423.78     -24018.3 
  492200   -95680.743   -83933.573    285.30603    20721     221052.1    78.953254   -4.1733122     232.9922    8.0408708    423.10214    23.540839    22.193587    6.4865311    429.58867    5430.9318   -24021.824 
  492300   -95646.074   -83957.448    283.88415    20721    220995.68     4.713315    63.180814   -9.7051487   -39.335721    422.99694    23.540761    22.193514     6.539132    429.53607    5465.2733   -24032.499 
  492400   -95624.297   -83925.803    284.12383    20721    220677.58    61.847248   -51.180866     176.7944    59.928212     422.6734    23.532814    22.186022    6.7009018     429.3743      5441.73   -24054.254 
  492500   -95604.342   -83951.827    283.00711    20721    220701.61   -100.37658   -245.87636   -116.51788    61.264513    423.00304    23.524923    22.178583    6.5360799    429.53912    5463.1063   -24044.815 
  492600   -95620.328   -83967.029    283.02617    20721    220837.85    54.438599    -212.3129    301.94062    73.688078    422.79554    23.537957     22.19087    6.6398279    429.43537    5466.2292   -24037.361 
  492700   -95642.256   -83986.944    283.07507    20721    220611.07   -24.164307    143.36825    168.49889   -384.36006    422.75293    23.527054    22.180591    6.6611348    429.41407     5466.952    -24023.76 
  492800   -95629.403   -83976.691    283.01189    20721    220744.43    39.842149    -40.79884   -77.970503    238.29579    422.82984    23.532024    22.185277    6.6226823    429.45252    5455.8419   -24023.698 
  492900   -95707.647   -83992.763    284.52187    20721    220725.78    39.679588   -101.79734    178.29517    42.540935    422.68814    23.534973    22.188057    6.6935286    429.38167    5478.9631   -24033.312 
  493000   -95682.404   -83983.576    284.13192    20721     220932.3    72.675453     139.6779    133.01266   -54.664196    422.90023    23.540076    22.192868    6.5874865    429.48771    5462.2307   -24019.273 
  493100   -95697.716    -83992.07     284.2975    20721    220814.09    85.464216    235.97402    121.83574   -101.41711     422.8263    23.535835    22.188869    6.6244493    429.45075    5482.8504   -24039.201 
  493200   -95667.118   -84008.948    283.14448    20721    220900.39   -51.960542    -324.2244    261.90239   -93.559614    422.56736    23.547645    22.200004    6.7539216    429.32128    5488.2114   -24019.444 
  493300   -95576.021   -83970.895    281.85616    20721    220686.42    76.086837   -72.511762    240.22516    60.547111    422.12396    23.548596      22.2009    6.9756209    429.09958    5503.4857   -24088.008 
  493400   -95574.626   -83975.984     281.6987    20721    220795.25   -50.482919   -115.89565   -80.089139    44.536035    422.13335     23.55414    22.206127    6.9709264    429.10427    5492.3325   -24063.538 
  493500   -95687.379   -83974.872    284.46414    20721    220494.58   -64.734016    117.57241   -184.68572   -127.08874    421.98274    23.542297    22.194962     7.046231    429.02897    5498.0261   -24082.005 
  493600   -95621.868   -83984.754    282.63306    20721    220143.96   -91.851813   -231.47304     48.56305   -92.645452    421.90257    23.525806    22.179415    7.0863162    428.98888    5489.6218   -24076.766 
  493700   -95583.288    -83910.92    283.48928    20721     220207.6   -33.070326    157.59861   -136.94609    -119.8635    421.87607    23.529946    22.183317    7.0995652    428.97563    5508.5774   -24171.399 
  493800   -95439.603   -83877.097    280.82105    20721    220460.71   -49.419999   -178.83846    36.888896   -6.3104365    422.06787    23.538114    22.191019    7.0036653    429.07153    5496.7697   -24181.605 
  493900   -95479.049   -83951.238    279.97841    20721    220219.52    41.336434    74.615549    18.197851    31.195902    421.38431    23.544309    22.196859    7.3454462    428.72975    5521.5705   -24149.683 
  494000   -95536.661   -83949.921    281.40961    20721    220432.05    50.366897    -86.46765    98.136726    139.43162    421.53659    23.551411    22.203555    7.2693026     428.8059    5515.1311   -24138.636 
  494100   -95630.261   -83947.745    283.73576    20721    220299.39    31.120292    14.666555   -27.557856    106.25218    421.30345    23.550838    22.203014    7.3858748    428.68933    5504.3365   -24136.687 
  494200   -95538.002   -83944.436     281.5754    20721    220383.07   -63.485249    -46.21342    141.86106   -286.10339    421.51859    23.549298    22.201562    7.2783026     428.7969    5489.2663   -24119.014 
  494300   -95723.791   -83963.413    285.62679    20721    220352.39   -92.830828   -196.05856   -327.47452     245.0406    421.63159    23.544503    22.197042    7.2218066    428.85339    5535.5917    -24148.11 
  494400   -95510.504   -83959.639    280.53831    20721    220370.44   -100.49176   -17.472227    154.77338   -438.77643     421.5886    23.546668    22.199082    7.2432979     428.8319    5515.6447   -24131.254 
  494500   -95674.818   -83942.226    284.95198    20721    220126.11   -13.169004   -98.522418    78.894888    -19.87948    421.48908    23.536389    22.189392    7.2930593    428.78214     5516.634   -24163.157 
  494600   -95654.599   -83984.905    283.42434    20721    220460.49    45.934211    176.53741    -19.17887   -19.555908    421.65753    23.549553    22.201802    7.2088328    428.86637      5517.35   -24112.007 
  494700   -95563.711   -83919.234     282.8119    20721    220422.39    4.3859344    208.96911   -159.12889   -36.682418    421.95995    23.539078    22.191927    7.0576229    429.01758    5498.8403   -24163.513 
  494800   -95553.234   -83966.437    281.41102    20721    220378.98    73.180833    150.80847    47.034221    21.699812    421.99988    23.535647    22.188692    7.0376613    429.03754    5543.2283   -24165.574 
  494900   -95586.958   -83972.161    282.09106    20721    220311.37    -126.4202   -172.97099   -4.9647449   -201.32487    421.80013    23.537608    22.190541    7.1375358    428.93766    5547.8237   -24158.104 
  495000   -95591.271   -83987.984     281.8115    20721    220271.03    32.940827     111.7945    217.05191   -230.02394    421.87651    23.533322      22.1865    7.0993433    428.97586    5563.5501   -24168.663 
  495100    -95591.86   -83993.938    281.68121    20721    220289.93    88.360255   -92.366238    202.46508    154.98192    421.89258    23.533883     22.18703      7.09131    428.98389    5554.9153   -24156.769 
  495200   -95613.325   -84023.093    281.49443    20721    220522.54    125.88392    192.25517    265.06701   -79.670408     421.8495    23.547507    22.199874    7.1128493    428.96235     5584.171   -24152.599 
  495300   -95684.798   -84000.565    283.77747    20721    220494.45   -69.942978    33.263568   -56.944557   -186.14795    422.29672    23.533536    22.186703    6.8892394    429.18596    5588.2257    -24174.93 
  495400   -95660.493   -83992.986    283.37123    20721     220579.7   -55.423499   -28.622364    -330.1713    192.52317    422.28435     23.53843    22.191317    6.8954274    429.17977    5580.6778    -24172.75 
  495500   -95671.953   -84034.549    282.64012    20721     220733.6    51.360121    64.574311  0.046279207    89.459774    422.16129    23.550071    22.202291    6.9569528    429.11825    5582.2186   -24134.666 
  495600    -95636.63   -83983.194    283.02946    20721    220799.37   -6.5739181   -103.04691   -133.06792    216.39307    422.40629    23.546748    22.199158    6.8344551    429.24074    5590.6667   -24189.404 
  495700    -95567.11   -83993.105    281.10032    20721    220687.54    27.140914    179.87257   -72.668667   -25.781155    422.45708     23.53937    22.192202    6.8090616    429.26614    5584.1036   -24180.642 
  495800   -95749.712   -84054.841    284.03583    20721    220508.45   -154.00904    -82.12034   -361.86272   -18.044051    422.26214    23.535247    22.188315    6.9065317    429.16867    5609.6398   -24145.672 
  495900   -95694.494   -84067.255    282.39324    20721    220557.95    74.462534    352.65094   -62.363471   -66.899864    421.90851    23.547751    22.200104    7.0833438    428.99186    5625.9476   -24158.553 
  496000   -95671.845   -84033.777    282.65625    20721    220879.82    88.281063    123.53414   -59.924478    201.23353    422.21467    23.556381     22.20824    6.9302643    429.14494    5623.0654    -24181.61 
  496100   -95622.063   -84008.376     282.0641    20721    220486.33   -159.65702   -88.727847    -130.7117   -259.53151    422.12885    23.537782    22.190705    6.9731738    429.10203    5618.7721   -24204.385 
  496200   -95622.982   -84018.284    281.84578    20721    220665.24     10.38691   -91.140372    72.202553    50.098548    421.88662    23.554088    22.206078    7.0942879    428.98091     5623.264   -24201.991 
  496300   -95725.143   -84053.589    283.46954    20721     220609.1     43.13066   -43.269078    111.79626    60.864795    421.86176    23.551786    22.203908    7.1067187    428.96848    5614.3055   -24161.674 
  496400   -95621.308   -84014.758    281.89076    20721    220591.28    70.701304    121.68622    -23.80338    114.22107     421.9637     23.54799    22.200329    7.0557486    429.01945    5593.9383    -24182.66 
  496500   -95636.372    -83992.66    282.79332    20721    220679.08    49.134185    46.142438   -59.864652    161.12477    421.64379    23.561609    22.213168    7.2157032     428.8595    5606.6982   -24218.037 
  496600   -95709.995   -83990.068    284.64438    20721    220488.65    56.314518    304.55858   -185.03598    49.420955    421.71321    23.549502    22.201755    7.1809928    428.89421    5601.1569   -24221.927 
  496700   -95765.028   -84002.713    285.67385    20721    220647.96   -64.804945   -159.93071    277.44364   -311.92777    422.33566    23.540642    22.193401    6.8697703    429.20543    5609.0872   -24210.255 
  496800   -95677.733   -84066.647    282.00094    20721    220904.43   -19.294119    69.426516    70.504605   -197.81348    422.33922     23.55422    22.206202    6.8679914    429.20721    5633.3333   -24163.078 
  496900    -95743.53    -84042.04    284.19659    20721    220944.06    40.730527    365.53938   -346.53556    103.18776    422.52675    23.551104    22.203265    6.7742237    429.30098    5623.0871    -24181.89 
  497000   -95619.203   -84077.174    280.32372    20721    220754.23    94.234615    36.456438   -70.374425    316.62183    422.52258    23.541101    22.193834    6.7763078    429.29889    5623.9306   -24155.657 
  497100   -95695.236   -84085.469     281.9689    20721    221067.36    67.976995     299.3597    369.04976   -464.47847    422.73521    23.551866    22.203983    6.6699953     429.4052    5641.4926   -24158.072 
  497200   -95682.756   -84049.808     282.5319    20721    220900.05    21.815504    -40.59999    200.65344   -94.606939    422.76483    23.542127    22.194802    6.6551855    429.42001    5614.7106   -24171.892 
  497300   -95704.322   -84039.837    283.29783    20721     220836.7   -30.036718    21.030668    -157.9679     46.82708    422.68986    23.540838    22.193587    6.6926676    429.38253     5632.309   -24199.864 
  497400   -95633.652   -84010.832     282.2859    20721    220652.99   -28.613489   -378.26971     57.87431    234.55493    422.51088    23.536028    22.189052    6.7821617    429.29304    5615.1554   -24219.959 
  497500   -95553.579   -83965.619    281.43926    20721    220904.79   -3.5745256   -193.33618   -4.6664178    187.27902     422.5234    23.549104     22.20138    6.7759007     429.2993    5601.6523   -24247.212 
  497600   -95495.022       -83939    280.66357    20721    220886.71    41.444581   -166.96346    95.686863    195.61034    422.55559    23.547244    22.199626    6.7598069    429.31539    5591.2098   -24266.206 
  497700   -95679.773   -83962.782    284.57306    20721    220829.76   -26.391216   -3.9012388   -105.30107    30.028656    422.74606    23.538904    22.191763     6.664572    429.41063    5596.6377   -24251.253 
  497800   -95704.243   -83965.221    285.10813    20721    221228.45   -47.279447    -43.86112   -49.260818   -48.716403    423.14957    23.548907    22.201193    6.4628127    429.61239    5600.6183   -24237.539 
  497900   -95703.696   -83961.735     285.1795    20721    221079.85   -21.708351    99.967252   -12.227307     -152.865    422.81355    23.550349    22.202553    6.6308241    429.44438     5599.716   -24249.274 
  498000   -95674.258    -83985.18    283.89514    20721    220987.64    4.7985689    262.28306    144.83399   -392.72135     423.2283    23.533897    22.187043    6.4234507    429.65175    5591.5241   -24224.355 
  498100   -95595.392   -83949.683    282.84181    20721    220855.48    60.008311    185.58254   -77.712906    72.155296     423.3755    23.522769    22.176552    6.3498488    429.72535    5563.2052   -24237.883 
  498200   -95528.458    -83913.25    282.10103    20721     221210.3    103.34035    155.23024   -22.182244    176.97306    423.41956    23.540432    22.193204    6.3278208    429.74738    5577.9764   -24280.125 
  498300   -95545.663    -83919.24    282.37341    20721    221321.02    2.7319011    26.809874   -77.573534    58.959363     423.5933    23.541493    22.194204    6.2409505    429.83425    5577.0973   -24265.949 
  498400   -95622.833   -83930.108     283.9837    20721    221081.67   -79.788701   -149.62311   -222.41548    132.67249    423.47045    23.532173    22.185417    6.3023752    429.77282    5565.7069   -24251.074 
  498500    -95576.42   -83981.343    281.61209    20721     220881.5    69.597183   -85.251555     125.9076    168.13551    423.33232    23.525355    22.178989    6.3714397    429.70376    5582.7966   -24230.857 
  498600   -95580.435   -83934.384    282.85013    20721    221315.99   -14.532478   -95.365712   -64.670213    116.43849    423.65854    23.539413    22.192243    6.2083275    429.86687    5583.5726   -24264.548 
  498700   -95684.779   -83910.998    285.95232    20721     221211.2    44.040574    234.86695   -95.602725   -7.1425006    423.66629    23.533625    22.186786    6.2044562    429.87074    5573.5713   -24285.341 
  498800   -95650.967   -83904.642    285.28552    20721    221280.33   -140.20866    22.523195   -426.70277    -16.44641    423.58864    23.539458    22.192286    6.2432811    429.83192     5581.863   -24290.313 
  498900   -95658.294   -83946.897    284.43721    20721    221166.14   -30.971497    62.001886   -174.73786    19.821481    423.49176    23.536076    22.189097    6.2917197    429.78348    5577.3923   -24254.635 
  499000   -95621.794   -83891.788    284.88914    20721    221183.51   -37.089472   -76.911816    20.718791    -55.07539    423.65746    23.532397    22.185628    6.2088715    429.86633    5564.8708    -24299.34 
  499100   -95600.661   -83944.687    283.09113    20721    221100.39    8.6043533   -58.047887    94.194233   -10.333286    423.72792    23.526018    22.179615    6.1736398    429.90156    5601.6215   -24289.898 
  499200   -95627.109   -83945.639    283.71035    20721     221079.6    -74.06287   -27.034863   -289.04229    93.888547    423.75595    23.524134    22.177838    6.1596246    429.91558    5576.5027   -24262.239 
  499300   -95535.707   -83962.831    281.07291    20721    220803.37    43.021098    85.968034    150.00938   -106.91412    423.49447     23.51669     22.17082    6.2903632    429.78484    5587.9475    -24272.66 
  499400   -95559.901   -83921.328     282.6685    20721    221184.44    26.126699   -73.016275    356.26479   -204.86842     423.5561    23.535261    22.188329    6.2595488    429.81565    5610.8042   -24324.886 
  499500   -95501.682   -83891.693    281.97429    20721    220994.39    -138.1598   -141.72154   -137.77177   -134.98611    423.46213    23.527758    22.181255    6.3065357    429.76866    5579.9605    -24323.33 
  499600   -95512.528   -83856.225    283.09911    20721    220946.18     49.54156    23.010562    79.741557     45.87256    423.47881    23.524729    22.178399    6.2981974      429.777    5560.9211   -24354.499 
  499700   -95514.563   -83907.777    281.89646    20721    221135.67     125.3248   -57.116247    19.067812    414.02282    423.31488    23.539371    22.192203    6.3801609    429.69504    5578.1356   -24315.722 
  499800   -95554.001   -83945.974    281.92662    20721     221048.7   -2.4037904   -28.445911    67.737052   -46.502512    423.34422    23.533926     22.18707    6.3654876    429.70971    5587.8823   -24287.499 
  499900   -95609.062   -83924.499    283.78546    20721    221136.73     -53.1364    54.678221   -129.99235   -84.095072     423.5596    23.532626    22.185844    6.2577981     429.8174    5592.9444   -24312.882 
  500000   -95562.189    -83900.86    283.22118    20721    221311.43   -33.652283    49.228103    51.858672   -202.04362     423.9935    23.529871    22.183247    6.0408524    430.03435    5559.8651    -24298.26 
Loop time of 50043.9 on 32 procs for 500000 steps with 20721 atoms

Performance: 1.726 ns/day, 13.901 hours/ns, 9.991 timesteps/s
97.3% CPU use with 32 MPI tasks x no OpenMP threads

MPI task timing breakdown:
Section |  min time  |  avg time  |  max time  |%varavg| %total
---------------------------------------------------------------
Pair    | 6313.5     | 8757.9     | 12316      |2338.7 | 17.50
Bond    | 0.37184    | 0.48845    | 0.58567    |   8.9 |  0.00
Kspace  | 7863.3     | 11437      | 13895      |2059.3 | 22.85
Neigh   | 8064.8     | 10082      | 11851      |1410.1 | 20.15
Comm    | 438.48     | 3610.2     | 7203.2     |4230.4 |  7.21
Output  | 5.5064     | 44.026     | 70.231     | 357.4 |  0.09
Modify  | 12801      | 16075      | 20873      |2333.5 | 32.12
Other   |            | 37.97      |            |       |  0.08

Nlocal:    647.531 ave 700 max 595 min
Histogram: 2 1 1 9 7 2 1 4 3 2
Nghost:    7215.78 ave 7762 max 6760 min
Histogram: 4 6 9 1 0 0 2 0 0 10
Neighs:    237896 ave 270747 max 209851 min
Histogram: 2 2 8 8 0 2 0 4 4 2
FullNghs:  475794 ave 538395 max 424611 min
Histogram: 2 2 12 4 0 2 0 4 2 4

Total # of neighbors = 15225407
Ave neighs/atom = 734.781
Ave special neighs/atom = 2
Neighbor list builds = 500000
Dangerous builds not checked
write_data production.R1
PPPM initialization ...
  extracting TIP4P info from pair style
WARNING: Using 12-bit tables for long-range coulomb (../kspace.cpp:316)
  G vector (1/distance) = 0.345876
  grid = 400 48 48
  stencil order = 5
  estimated absolute RMS force accuracy = 0.000402568
  estimated relative force accuracy = 1.21232e-06
  using double precision FFTs
  3d grid and FFT values/proc = 67260 38400
write_restart restartproduction.R1
PPPM initialization ...
  extracting TIP4P info from pair style
WARNING: Using 12-bit tables for long-range coulomb (../kspace.cpp:316)
  G vector (1/distance) = 0.345876
  grid = 400 48 48
  stencil order = 5
  estimated absolute RMS force accuracy = 0.000402568
  estimated relative force accuracy = 1.21232e-06
  using double precision FFTs
  3d grid and FFT values/proc = 67260 38400
Total wall time: 13:54:04
