LAMMPS (30 Jul 2016)
# Sets up LAMMPS simulation for transient melting of ice: TIP4P/Ice
# Ensure cold thermostats do not move
# Thinbox: 16x1x1
# Defects
# Order param l=2

#### setting MD parameters ####
units real
boundary p p p
atom_style full

# read ice box in restart file
#read_data ice-ih-restart.data
read_restart restart.state
  orthogonal box = (0.355532 0.019185 0.018087) to (435.72 23.512 22.1664)
  32 by 1 by 1 MPI processor grid
  20736 atoms
  13824 bonds
  6912 angles
  2 = max # of 1-2 neighbors
  1 = max # of 1-3 neighbors
  1 = max # of 1-4 neighbors
  2 = max # of special neighbors

#replicate 16 boxes, 16x1x1


#### force field definition ####
pair_style      lj/cut/tip4p/long 2 1 1 1 0.1577 10.0
pair_modify	tail yes

kspace_style	pppm/tip4p 1.0e-6

bond_style	harmonic
angle_style	harmonic
dihedral_style	none
improper_style	none

bond_coeff	1 450.0 0.9572
angle_coeff	1 55.0 104.52


# reset pair coeff
pair_coeff	* * 0.0 0.0

#OO
pair_coeff	2 2 0.21085 3.1668
#OH
pair_coeff	* 1 0.0000 0.0000

neighbor        2.0 bin
neigh_modify    every 1 delay 1 check no

timestep	2.0
fix		constraints all shake 0.000001 20 0 b 1 a 1
  0 = # of size 2 clusters
  0 = # of size 3 clusters
  0 = # of size 4 clusters
  6912 = # of frozen angles

group water type 1 2
20736 atoms in group water

#*********** SIMULATION PARAMETER TO ADJUST ****************
#Box dimensions
variable lx equal lx
variable ly equal ly
variable lz equal lz

### Temperature of the hot and cold regions ####
variable thi equal 375
variable tlo equal 215
variable runpressure equal 0.986923
# Configuration equilibrated in density and temperature

# Define dx here

variable lx equal lx
variable ly equal ly
variable lz equal lz

variable xlo equal xlo
variable xhi equal xhi


variable dx equal 2.0

### ADD IN DEFECTS AT THE CENTRE OF THE HOT THERMOSTAT ###
variable x1 equal ${lx}/4.0
variable x1 equal 435.364135360965/4.0
variable y1 equal ${ly}/2.0
variable y1 equal 23.4928300027279/2.0
variable z1 equal ${lz}/2.0
variable z1 equal 22.1483259330394/2.0

region kill1 sphere ${x1} ${y1} ${z1} 3
region kill1 sphere 108.841033840241 ${y1} ${z1} 3
region kill1 sphere 108.841033840241 11.7464150013639 ${z1} 3
region kill1 sphere 108.841033840241 11.7464150013639 11.0741629665197 3
delete_atoms region kill1 compress no bond yes mol yes
Deleted 12 atoms, new total = 20724
Deleted 8 bonds, new total = 13816
Deleted 4 angles, new total = 6908




variable thip equal ${thi}*2.0/3.0
variable thip equal 375*2.0/3.0
variable tlop equal ${tlo}*2.0/3.0
variable tlop equal 215*2.0/3.0
variable cbl equal ${lx}*3.0/4.0-${dx}
variable cbl equal 435.364135360965*3.0/4.0-${dx}
variable cbl equal 435.364135360965*3.0/4.0-2
variable cbh equal ${lx}*3.0/4.0+${dx}
variable cbh equal 435.364135360965*3.0/4.0+${dx}
variable cbh equal 435.364135360965*3.0/4.0+2
variable hbl equal ${lx}*1.0/4.0-${dx}
variable hbl equal 435.364135360965*1.0/4.0-${dx}
variable hbl equal 435.364135360965*1.0/4.0-2
variable hbh equal ${lx}*1.0/4.0+${dx}
variable hbh equal 435.364135360965*1.0/4.0+${dx}
variable hbh equal 435.364135360965*1.0/4.0+2


#***************************************************
## EQUILIBRATION PERIOD - to reach the steady state ###
#run 0

#reset the timestep to start your production run
reset_timestep 0

# define a group to perform averages
#group s1 type 1
###*** SYSTEM THERMOSTATTING: HOT and COLD regions ***###

fix NVE all nve
fix PRESS all press/berendsen aniso ${runpressure} ${runpressure} 500000 couple yz
fix PRESS all press/berendsen aniso 0.986923 ${runpressure} 500000 couple yz
fix PRESS all press/berendsen aniso 0.986923 0.986923 500000 couple yz


### Apply THERMOSTATS ###

#set up the "hot region" in the middle of the box
region hot block ${hbl} ${hbh} 0 ${ly} 0 ${lz} units box
region hot block 106.841033840241 ${hbh} 0 ${ly} 0 ${lz} units box
region hot block 106.841033840241 110.841033840241 0 ${ly} 0 ${lz} units box
region hot block 106.841033840241 110.841033840241 0 23.4928300027279 0 ${lz} units box
region hot block 106.841033840241 110.841033840241 0 23.4928300027279 0 22.1483259330394 units box


#set up the "cold region" at the left end of the box
region cold block ${cbl} ${cbh} 0 ${ly} 0 ${lz} units box
region cold block 324.523101520724 ${cbh} 0 ${ly} 0 ${lz} units box
region cold block 324.523101520724 328.523101520724 0 ${ly} 0 ${lz} units box
region cold block 324.523101520724 328.523101520724 0 23.4928300027279 0 ${lz} units box
region cold block 324.523101520724 328.523101520724 0 23.4928300027279 0 22.1483259330394 units box

#set up the "cold region" at the right end of the box
#region cold2 block ${h2bl} ${xhi} 0 ${ly} 0 ${lz} units box


#Cold regions  unification
#region cold union 2 cold1 cold2 units box

#Create group of cold molecules
####group cool_ice region cold
####group cool_ice include molecule

####compute cold_temp cool_ice temp
####fix cold_rescale water temp/rescale 1 ${tlo} ${tlo} 0.0001 1.0
####fix_modify cold_rescale temp cold_temp

#this calculates the temperature using only the atoms in the "hot region"
#compute hot_temp all temp/region hot

# calculate the temperature using only WATER in the "hot region"
compute hot_temp water temp/region hot

#this calculates the temperature using only WATER in the "cold region"
compute cold_temp water temp/region cold


#set up a basic velocity rescale for the hot region WATER with thip
fix hot_rescale water temp/rescale 1 ${thip} ${thip} 1.0 1.0
fix hot_rescale water temp/rescale 1 250 ${thip} 1.0 1.0
fix hot_rescale water temp/rescale 1 250 250 1.0 1.0
#change the thermostat to only act on the "hot region"
#this is done by passing it the "hot temp" compute that we defined above
fix_modify hot_rescale temp hot_temp

#set up a basic velocity rescale for the cold region
fix cold_rescale water temp/rescale 1 ${tlop} ${tlop} 1.0 1.0
fix cold_rescale water temp/rescale 1 143.333333333333 ${tlop} 1.0 1.0
fix cold_rescale water temp/rescale 1 143.333333333333 143.333333333333 1.0 1.0
#change the thermostat to only act on the "cold region"
#this is done by passing it the "cold temp" compute that we defined above
fix_modify cold_rescale temp cold_temp

### Ensure MOMENTUM CONSERVATION ###

#ensure that linear momentum is conserved despite the "thermostatting" by velocity rescaling
fix cons_mom all momentum 1 linear 1 1 1


thermo 100
thermo_style custom step pe etotal temp atoms vol press pxx pyy pzz lx ly lz xlo xhi f_cold_rescale f_hot_rescale

group ox type 2
6908 atoms in group ox
group hy type 1
13816 atoms in group hy
compute KE all ke/atom
variable TEMP atom c_KE*4186.8/(1.3806488*6.02214129)

compute cc1 all chunk/atom bin/1d x center 2 units box
#fix TPROFILE all ave/chunk 1 500 500 cc1 v_TEMP density/number file temp.dat
fix TPROFILEox ox ave/chunk 1 500 500 cc1 v_TEMP density/number file temp-ox.dat
fix TPROFILEhy hy ave/chunk 1 500 500 cc1 v_TEMP density/number file temp-hy.dat

compute orderparam ox orientorder/atom degrees 1 2 nnn 4 cutoff 3.5
compute cc2 ox chunk/atom bin/1d x center 2 units box
#fix ORDERPARAM all ave/chunk 1 500 500 cc2 c_orderparam[1] file order-param.dat
fix ORDERPARAM all ave/chunk 1 500 500 cc2 c_orderparam[1] file order-param.dat

restart 50000 config.restart

run 500000
PPPM initialization ...
  extracting TIP4P info from pair style
WARNING: Using 12-bit tables for long-range coulomb (../kspace.cpp:316)
  G vector (1/distance) = 0.345579
  grid = 405 48 48
  stencil order = 5
  estimated absolute RMS force accuracy = 0.000406375
  estimated relative force accuracy = 1.22379e-06
  using double precision FFTs
  3d grid and FFT values/proc = 67260 38880
Neighbor list info ...
  2 neighbor list requests
  update every 1 steps, delay 1 steps, check no
  max neighbors/atom: 2000, page size: 100000
  master list distance cutoff = 12.3154
  ghost atom cutoff = 12.3154
  binsize = 6.1577 -> bins = 71 4 4
Memory usage per processor = 12.789 Mbytes
Step PotEng TotEng Temp Atoms Volume Press Pxx Pyy Pzz Lx Ly Lz Xlo Xhi cold_res hot_resc 
       0   -103816.52   -95123.487    211.09891    20724    226531.65   -88.982373   -316.01953    110.41724   -61.344828    435.36414     23.49283    22.148326   0.35553232    435.71967            0            0 
     100   -103695.61   -94847.518    214.86439    20724    226362.35    17.224314   -60.026144   -23.415165    135.11425    435.33646    23.484796    22.140752   0.36936891    435.70583  -0.58095546   -283.93983 
     200   -103681.09   -94764.744    216.52177    20724    226402.63    86.272547    226.48295    51.905021   -19.570332    435.19186    23.490787      22.1464   0.44167055    435.63353   -13.551422   -358.37963 
     300   -103652.01   -94759.127    215.95211    20724    226585.28    79.366151    89.674154    210.03911   -61.614808    435.39726    23.494717    22.150105   0.33897191    435.73623   0.19112545   -372.45925 
     400   -103620.65   -94695.914    216.72564    20724    226365.51    -45.51547   -41.891628   -70.273147   -24.381636    435.24111    23.487532    22.143331   0.41704358    435.65816   -19.941036   -415.55488 
     500   -103607.06     -94657.4    217.33081    20724    226531.69    50.924207   -65.452047    61.266049    156.95862    435.23144    23.496413    22.151704    0.4218804    435.65332   -9.3526238   -466.70017 
     600   -103639.75   -94643.002    218.47417    20724    226403.53   -19.922171     80.32945   -77.917193    -62.17877    435.05427    23.494548    22.149946   0.51046704    435.56473   -21.565118   -469.49774 
     700   -103577.29   -94576.018    218.58411    20724    226683.07    66.257925    70.189245     48.03054    80.553988    435.29584    23.502523    22.157465   0.38967913    435.68552   -10.386445   -545.61151 
     800   -103596.67   -94560.744    219.42569    20724    226392.41     83.36042    184.58342    16.729029    48.768807    435.16965    23.490856    22.146465   0.45277356    435.62243   -24.665483   -556.55817 
     900   -103619.68   -94552.433    220.18625    20724    226537.55   -94.287379   -145.94724   -90.826164    -46.08873    435.24745    23.496285    22.151583   0.41387655    435.66132   -8.5411124   -568.70377 
    1000    -103594.1   -94525.986    220.20731    20724    226462.83   -0.6137814    18.871709    286.56478   -307.27783    435.24592    23.492451    22.147968   0.41463791    435.66056   -18.251724   -591.86606 
    1100   -103525.82   -94513.394    218.85508    20724    226457.63    35.673191   -55.382746   -21.628154    184.03047    435.11654    23.495674    22.151007   0.47933008    435.59587   -7.9581132   -618.12584 
    1200   -103461.25    -94495.01    217.73345    20724    226610.58   -17.786485    204.06628   -174.48425   -82.941483    435.23678     23.50036    22.155425   0.41920787    435.65599    3.9417305    -642.0929 
    1300   -103658.28   -94500.329    222.38884    20724     226447.2   -7.8104701   -7.6674151   -122.86298    107.09898    435.30454    23.490058    22.145713   0.38533097    435.68987    11.416564   -652.27433 
    1400   -103526.56   -94441.191    220.62639    20724    226489.09    -14.38506   -25.944859   -70.612142    53.401821    435.06547    23.498684    22.153845   0.50486468    435.57034    14.426071    -713.0152 
    1500    -103499.4   -94477.865    219.07615    20724    226232.63    12.243329    95.843369   -139.87238    80.758994    435.09412    23.484603     22.14057   0.49054062    435.58466      29.8085   -700.13332 
    1600   -103526.15   -94435.122    220.76371    20724    226452.15    29.777474    90.980506    -155.6904    154.04231    435.15324    23.494398    22.149805   0.46098086    435.61422     21.78462   -731.45718 
    1700   -103483.54     -94396.3    220.67184    20724    226354.77    4.9682949    38.492209   -79.933186    56.345861    435.00636    23.493312     22.14878   0.53441923    435.54078    36.210244    -785.2927 
    1800    -103446.1    -94387.26    219.98211    20724     226345.2    5.3050845    80.324072    32.254924   -96.663742    435.06222    23.491306     22.14689    0.5064898    435.56871    34.708246    -793.5757 
    1900   -103407.23    -94320.89    220.64997    20724     226397.9     8.752668   -52.484429     37.95001    40.792423     435.1277    23.492273    22.147801   0.47375227    435.60145    20.643306   -845.91242 
    2000   -103432.84   -94340.658    220.79186    20724    226316.16    22.758164    99.660515    34.887429   -66.273453    435.06184     23.48981    22.145479   0.50668006    435.56852    13.387572   -823.47895 
    2100   -103441.38   -94285.132    222.34761    20724    226533.74   -116.98376   -165.87762   -49.007349    -136.0663    435.17204    23.498123    22.153316   0.45158144    435.62362    36.373379   -890.67812 
    2200   -103425.33   -94318.323    221.15183    20724    226537.13    23.750788    138.24124    100.38662   -167.37549    435.21803    23.497057    22.152311   0.42858532    435.64661     35.92243   -864.39462 
    2300   -103375.86   -94279.081    220.90343    20724    226473.52    14.514216   -34.183731    115.43131    -37.70493    435.18369    23.494685    22.150075   0.44575637    435.62944    63.494775   -931.41464 
    2400   -103354.13   -94253.252    221.00289    20724    226434.22    27.122167   -64.425656    122.77171    23.020448    434.99085    23.497853    22.153062   0.54217494    435.53303    41.768588   -938.89415 
    2500   -103387.14   -94226.718    222.44882    20724    226494.32   -36.740677   -110.64043    161.40955   -160.99116    435.32968    23.491823    22.147377   0.37275903    435.70244    40.791003   -961.73316 
    2600   -103325.88    -94182.74    222.02918    20724    226466.96   0.57102425    -29.28981   -115.57462     146.5775    435.33364    23.490298    22.145939   0.37077941    435.70442    47.843528   -1014.3944 
    2700   -103303.56    -94200.93    221.04558    20724    226421.76    50.672827   -37.402832    157.81915    31.602162     435.2998    23.488866    22.144589   0.38769783     435.6875    52.013536   -1006.7874 
    2800   -103340.49   -94175.231    222.56641    20724    226470.97    64.650789      9.20827    19.469192     165.2749    435.28237     23.49189    22.147439   0.39641644    435.67878    44.458843   -1023.0363 
    2900   -103353.41   -94117.354    224.28565    20724    226511.74   -20.905753   -25.673579   -46.469041    9.4253618    435.38119    23.491338    22.146919   0.34700656    435.72819    45.305178   -1077.6425 
    3000   -103370.08   -94131.793     224.3398    20724    226483.41   -57.594785   -202.74261   -91.561365    121.51962    435.59231    23.484175    22.140167   0.24144597    435.83375    60.070221   -1077.8007 
    3100   -103368.95   -94131.385    224.32225    20724    226487.12    44.000087   -75.310747    71.716595    135.59441    435.39448    23.489702    22.145377   0.34036054    435.73484    57.237968   -1083.3451 
    3200   -103344.72   -94078.277    225.02354    20724    226533.62    34.783299     148.2077    257.81925   -301.67705       435.15    23.498712    22.153871   0.46259937     435.6126     54.06392    -1131.864 
    3300   -103243.86   -94010.046    224.23125    20724    226344.75    38.027845    -77.79262    336.11932   -144.24316    435.20217    23.487506    22.143306   0.43651379    435.63869    27.002392   -1177.9458 
    3400   -103266.52   -94018.379    224.57915    20724    226465.45   -71.510762    27.596172   -271.65981    29.531352    435.34195    23.489996    22.145654   0.36662623    435.70857    38.474698   -1174.8411 
    3500   -103322.92   -94015.223    226.02531    20724    226650.29   -7.2555994    122.12591    65.005441   -208.89815    435.37421    23.498709    22.153868   0.35049334    435.72471    34.013263    -1173.854 
    3600   -103259.28    -93982.42    225.27654    20724    226517.82    40.711779    88.852975     44.66283   -11.380469    435.37602    23.491792    22.147348   0.34958938    435.72561    29.296069   -1207.5013 
    3700   -103141.08   -93957.905    223.00148    20724    226512.65    38.489645    87.194808    -43.08975    71.363878    435.46393    23.489153    22.144859   0.30563271    435.76957    34.480983   -1238.3885 
    3800   -103125.27   -93895.663    224.12904    20724    226511.16    4.2849909    107.90572   -56.370185   -38.680558    435.33673    23.492507    22.148021   0.36923424    435.70597    10.536215    -1275.371 
    3900   -103215.11   -93927.186    225.54521    20724    226620.86    3.0566632    6.2982763    75.658924   -72.787211    435.51589    23.493361    22.148827   0.27965429    435.79555    45.240744   -1275.8233 
    4000   -103116.46   -93907.845    223.61929    20724    226598.62    25.263509   -151.07128    154.48573    72.376072    435.30032    23.498024    22.153223   0.38743865    435.68776    44.163497   -1296.2141 
    4100   -103079.15   -93871.488    223.59607    20724    226543.83    53.238363    113.95329   -124.91837    170.68017    435.33948    23.494127    22.149548   0.36785758    435.70734     51.41487   -1343.9566 
    4200   -103138.84   -93891.703    224.55479    20724     226439.5   -59.485442   -22.707566    -262.6553    106.90654    435.31727    23.489316    22.145013   0.37896315    435.69624      35.3746     -1305.62 
    4300   -103152.73   -93825.291    226.50473    20724    226478.54   -18.724762   -9.9425364    155.33161   -201.56336    435.44218    23.487971    22.143745   0.31651249    435.75869    21.152043   -1360.7881 
    4400   -103201.58   -93845.943    227.18934    20724    226649.23    0.9109236    114.93234    68.416149   -180.61572    435.46255    23.496271     22.15157   0.30632584    435.76887    52.974447   -1370.8316 
    4500   -103006.39   -93813.906    223.22759    20724    226497.52    42.616565    37.747865   -28.304293    118.40612    435.12829    23.497425    22.152658   0.47345461    435.60175    42.797867   -1397.0155 
    4600   -103133.85   -93810.765    226.39889    20724    226592.49   -32.105147   -110.59461   -101.27946    115.55862     435.3708    23.495804     22.15113   0.35220178      435.723    21.197336   -1374.5517 
    4700    -103160.7   -93826.487    226.66923    20724    226486.68   -35.295178    14.164912    55.340035   -175.39048    435.30071    23.492209    22.147741    0.3872465    435.68795    26.684863   -1367.1896 
    4800   -103187.51   -93805.072    227.84032    20724    226524.64   -56.017015    29.829891   -154.01168   -43.869254    435.51715    23.488339    22.144092   0.27902369    435.79618    7.1139963   -1368.7964 
    4900   -103054.79   -93791.769    224.94034    20724    226621.73    15.227645   -89.150597    91.232775    43.600756      435.331    23.498395    22.153572   0.37209777     435.7031    23.844028   -1397.9949 
    5000   -103038.61   -93770.838    225.05581    20724    226486.47    40.856177   -56.439595    92.014296     86.99383    435.30654    23.492041    22.147582   0.38433191    435.69087   -4.0481459   -1397.5921 
    5100   -103042.12    -93718.33    226.41616    20724    226573.92   -4.2290978   -10.625985   -133.39949    131.33818    435.43574     23.49309    22.148571   0.31973013    435.75547   -4.1757594   -1448.3855 
    5200   -103080.93    -93692.08    227.99603    20724     226581.6    35.917227   -110.20243    145.94146    72.012656     435.4933    23.491935    22.147483   0.29095211    435.78425   -5.2405994   -1474.5523 
    5300   -103060.26   -93717.824    226.86877    20724    226629.56    119.05467    224.67318    187.46218   -54.971366    435.42072    23.496379    22.151672   0.32724169    435.74796    35.334034   -1496.1106 
    5400   -102979.86   -93684.436    225.72718    20724    226457.21    21.579544   -26.846841    58.408585    33.176887    435.30996    23.490431    22.146064   0.38261833    435.69258    27.809223   -1521.3388 
    5500   -103125.66   -93647.719    230.15948    20724    226527.67   -133.86326   -203.07798   -299.89855    101.38674    435.38818    23.491975     22.14752   0.34350863    435.73169      24.9022   -1548.6059 
    5600   -102999.57   -93602.942    228.18491    20724    226426.82    41.665725    105.67414    13.117104    6.2059306    435.11478    23.494123    22.149545   0.48021022    435.59499    24.510528   -1604.3301 
    5700   -103008.85   -93629.067     227.7758    20724    226441.07   -3.6743934   -23.859601   -135.09945    147.93587    435.07671     23.49589    22.151211   0.49924462    435.57596    26.036043   -1577.4169 
    5800   -102875.41   -93625.096    224.63182    20724    226442.55    15.928703   -8.0883454    151.86422   -95.989763    435.23898    23.491586    22.147153   0.41810934    435.65709    30.216612   -1586.6795 
    5900   -103019.68   -93571.994    229.42483    20724    226638.98    1.0453117    19.038559   -174.54037    158.63774    435.26813    23.500986    22.156015   0.40353542    435.67166    7.1596524   -1612.5714 
    6000   -103057.92   -93620.702     229.1705    20724    226695.31    34.701347    140.83322   -92.420515    55.691337    435.06776    23.509318     22.16387   0.50371881    435.57148    27.904222   -1586.2724 
    6100   -103028.88   -93560.511    229.92699    20724    226605.79   -63.982628   -41.752864    7.5691604   -157.76418    435.23632    23.500124    22.155202   0.41944153    435.65576    9.6195653    -1625.062 
    6200   -102943.62   -93547.771    228.16589    20724    226718.81    38.269423   -27.112282    199.17623   -57.255678    435.46699    23.499757    22.154857   0.30410577    435.77109    19.123618   -1650.9036 
    6300   -102950.59    -93506.12    229.34658    20724    226810.48   -13.659944   -37.575572   -82.016929     78.61267    435.36599    23.507234    22.161905   0.35460502    435.72059    4.4205993   -1670.1497 
    6400   -102885.96   -93500.902    227.90382    20724    226744.02    24.317028    8.5296271   -141.17597    205.59742    435.38704    23.503221    22.158122   0.34408245    435.73112    10.045435    -1689.585 
    6500   -102850.46   -93474.467     227.6838    20724    226799.88    56.358102   -29.523878    91.801252    106.79693    435.41897    23.505254    22.160039   0.32811489    435.74709    17.651102   -1721.9461 
    6600   -102836.59   -93518.801    226.27035    20724    226655.37    13.315898   -48.838802   -100.95169    189.73819    435.38503     23.49868    22.153841    0.3450853    435.73011    24.491403    -1690.356 
    6700   -102856.06   -93499.095    227.22178    20724    226598.27    21.669588    19.421249   -13.213864    58.801377    435.27635    23.498654    22.153816   0.39942697    435.67577    21.023968   -1708.6737 
    6800   -102981.23   -93489.391    230.49697    20724    226607.18    29.207266   -18.928455    -114.5746    221.12486    435.19342    23.501354    22.156362   0.44088978    435.63431    34.014175   -1734.1013 
    6900   -102798.45   -93469.186    226.54907    20724    226679.31    26.198919    166.73638    214.29199   -302.43162    435.20708    23.504726    22.159541    0.4340598    435.64114     12.45915   -1729.1095 
    7000   -102805.89    -93462.66    226.88817    20724    226404.82     58.51654    25.231699    80.748366    69.569554    435.04036     23.49499    22.150363   0.51742136    435.55778    9.5315418   -1742.3418 
    7100   -102891.17   -93453.643    229.17814    20724     226688.7   -30.262029    123.30474   -103.42835   -110.66248    435.27168    23.503468    22.158355   0.40176181    435.67344    22.117573   -1754.6574 
    7200   -102815.01    -93384.68    229.00327    20724     226622.4   -19.026733   -59.974576    78.890126   -75.995748    435.29756    23.499332    22.154456   0.38882043    435.68638  -0.76645914   -1801.9776 
    7300   -102870.38   -93399.413       229.99    20724    226632.93    9.9846786    -26.86095   -63.635086    120.45007    435.38491     23.49752    22.152748   0.34514422    435.73006   -2.5588746   -1787.4071 
    7400    -102944.7   -93392.554    231.96137    20724    226841.14   -68.978641    9.6910773   -3.2220598   -213.40494    435.35207    23.509198    22.163757    0.3615638    435.71364    10.359492   -1802.0154 
    7500   -102883.47   -93381.849    230.73455    20724    226599.35   -25.410723   -8.4044846   -283.48406    215.65637    434.94531     23.50765    22.162298   0.56494708    435.51025    11.253735   -1822.2617 
    7600   -102786.08    -93366.74    228.73633    20724    226763.04    3.6142855    7.5122133    41.528459   -38.197816     435.2275    23.508514    22.163113   0.42385221    435.65135    3.3095703   -1825.2887 
    7700   -102834.73   -93342.865    230.49768    20724    226662.92     31.14111   -46.585675    44.124968    95.884038    435.21773    23.503588    22.158468    0.4287357    435.64646   -17.477411    -1837.761 
    7800   -102803.68   -93349.539    229.58144    20724    226608.77    71.643983    141.50123    62.770252    10.660464    435.23739    23.500249    22.155321   0.41890353     435.6563   -25.501024   -1824.9575 
    7900   -102839.21   -93315.298    231.27583    20724    226561.31   -11.597579    159.46141    60.103509   -254.35766    435.08042    23.502027    22.156997   0.49739213    435.57781   -3.3598098   -1879.1733 
    8000   -102884.03   -93277.184    233.28975    20724    226602.88   -141.85588   -182.39325   -31.816661   -211.35773    435.27931    23.498812    22.153966   0.39794485    435.67726    -5.889804   -1910.1385 
    8100   -102899.65   -93312.261    232.81713    20724    226724.83    16.597638    -70.77104    87.553645    33.010308    435.16213    23.508299     22.16291   0.45653416    435.61867   0.41022038   -1885.7775 
    8200   -102794.72   -93293.638    230.72147    20724    226455.98    34.893206   -65.761174    83.447971     86.99282    435.06035    23.497105    22.152356   0.50742385    435.56778    3.7475939   -1917.6559 
    8300   -102883.42   -93247.827    233.98786    20724    226551.38   -121.79351   -246.37439   -43.828349   -75.177782    434.92879    23.505608    22.160373   0.57320296      435.502   -6.9370548   -1944.1782 
    8400   -102772.97   -93254.386    231.14647    20724     226624.8    -7.974647   -98.257579    5.4847448    68.848893    435.07048    23.505588    22.160354   0.50235955    435.57284    -1.032554   -1945.2842 
    8500   -102772.02   -93234.654    231.60262    20724    226654.61    52.314134    149.70515     91.34846   -84.111206    435.08267    23.506805    22.161501    0.4962669    435.57893   -9.0000013   -1961.5147 
    8600   -102689.73    -93181.33    230.89903    20724    226687.35    -30.94118   -78.648754    77.563559   -91.738346    435.29916    23.502656     22.15759   0.38802068    435.68718    -24.32969   -1994.4113 
    8700   -102731.92   -93200.431    231.45987    20724    226608.46   -8.0885509   -99.717951   -31.924486    107.37679    434.99659    23.506737    22.161437   0.53930535    435.53589   -10.805232   -1993.3156 
    8800   -102819.89   -93231.938    232.83091    20724     226806.3   -63.801497   -33.058002    -33.74814   -124.59835    435.13499    23.513256    22.167583   0.47010344     435.6051   -5.5589471   -1959.9974 
    8900   -102763.95   -93213.469    231.92099    20724    226720.56    45.024237    163.39465    39.194369   -67.516313    435.11265    23.509415    22.163961   0.48127676    435.59392   -8.9689847   -1983.5188 
    9000   -102687.48   -93186.844    230.71067    20724    226696.54    13.171547     32.11688    18.486709   -11.088948     435.2157    23.505386    22.160163   0.42975155    435.64545    9.6375927   -2028.9726 
    9100   -102785.09   -93158.277     233.7747    20724     226597.8   -37.547994    12.980227   -18.552389   -107.07182    434.98821     23.50641    22.161129   0.54349539     435.5317    8.4476345    -2058.282 
    9200   -102691.66   -93158.711    231.49534    20724    226839.73   -21.430023   0.35607523   -112.44975    47.803608    435.11494    23.515531    22.169727   0.48013219    435.59507    9.4033453   -2053.6176 
    9300   -102731.69   -93205.739    231.32526    20724    226846.06    26.101879     144.6063   -201.89643    135.59576    435.19031    23.513822    22.168117   0.44244641    435.63275    22.352042   -2021.6933 
    9400   -102702.88   -93173.967    231.39729    20724    226753.77   -20.947842   -41.013936    3.5448284   -25.374417     435.2853    23.506473    22.161188   0.39495159    435.68025    25.598989   -2059.5316 
    9500   -102783.96   -93163.386    233.62316    20724    226564.81   -48.031543   -150.51494    57.450297   -51.029988    435.04411    23.503189    22.158092   0.51554573    435.55965    22.721365    -2072.497 
    9600   -102675.06   -93152.691     231.2384    20724    226612.91   -9.1942295   -90.714026    145.28797   -82.156637    435.16706    23.502363    22.157314   0.45407147    435.62113    10.204583    -2071.533 
    9700   -102680.43   -93115.836    232.26379    20724    226629.35    -3.486768    62.803066    175.52426   -248.78763    435.05657      23.5062    22.160931   0.50931491    435.56589   -6.8394337   -2092.0928 
    9800   -102663.28   -93072.006    232.91152    20724    226604.58    62.947406    2.0470284    213.19853   -26.403344    435.06604     23.50466    22.159479   0.50457944    435.57062   -9.4397102   -2137.8356 
    9900    -102540.9   -93042.221    230.66308    20724    226512.78    1.5385087    51.280217    3.2450469   -49.909738    435.00212    23.501625    22.156617   0.53654052    435.53866   -16.018285   -2161.0436 
   10000   -102613.26    -93029.46    232.73006    20724    226466.14    -51.11973   -165.04473   -279.03856    290.72411    434.97145    23.500033    22.155117   0.55187382    435.52333   -17.996993   -2173.0433 
   10100   -102500.58   -93012.615    230.40287    20724    226558.62   0.76470701   -66.173995    154.12752   -85.659401    435.24586     23.49742    22.152654   0.41466917    435.66053   -17.289785   -2190.8926 
   10200   -102557.09   -93003.278    232.00192    20724    226593.33    38.841311    51.293772   -91.056498    156.28666    435.22594    23.499758    22.154858     0.424632    435.65057   -21.727866     -2199.18 
   10300   -102495.53   -93022.534    230.03925    20724    226476.53    120.85774    124.32892    369.68408   -131.43978    435.05933    23.498198    22.153387   0.50793433    435.56727   -6.3148567   -2200.7586 
   10400   -102649.58   -92994.725    234.45559    20724    226670.58    2.7120806    117.47806   -194.66713     85.32532     435.2507    23.503095    22.158003    0.4122508    435.66295   -8.0884711   -2218.1466 
   10500   -102573.39   -93001.105    232.45051    20724    226554.97    3.8731484    16.171739    66.759018   -71.311312    435.08744    23.501508    22.156508   0.49387874    435.58132    3.6572513   -2228.1888 
   10600   -102603.58   -92976.374    233.78414    20724    226634.55   -37.077009   -126.14083   -219.97849     234.8883    435.08967    23.505576    22.160342   0.49276687    435.58243    13.769704   -2260.3737 
   10700   -102584.58   -92983.293    233.15478    20724    226509.77   -46.362132   -29.042544   -318.68796    208.64411    434.91427    23.503842    22.158708   0.58046312    435.49474    8.4652983   -2250.2224 
   10800      -102428   -92932.276    230.59119    20724     226564.1    105.62957   -39.040288    100.34284    255.58616    435.44178    23.492418    22.147937   0.31670963    435.75849    20.177813   -2322.1616 
   10900   -102596.31   -92975.958     233.6177    20724     226552.4    60.762934    256.98635    157.78624   -232.48378    435.11866    23.500532    22.155587     0.478268    435.59693    7.2091826   -2266.1485 
   11000   -102598.31    -92962.92     233.9829    20724    226638.13   -108.22925    -145.8419   -113.41735   -65.428497    435.17154     23.50355    22.158432    0.4518277    435.62337    14.864219   -2276.6162 
   11100   -102508.37   -92938.348    232.39563    20724    226702.16    47.663002   -33.090536   -21.573017    197.65256     435.1408      23.5077    22.162345   0.46719933      435.608    4.3452125   -2297.3768 
   11200   -102442.88   -92885.674    232.08442    20724    226537.95    36.356078    182.39424   -115.08904    41.763032     435.1701    23.498394    22.153571   0.45255192    435.62265   -8.7420063   -2342.4801 
   11300    -102447.6   -92853.585    232.97827    20724    226696.55   -6.9128262    81.950875    9.9180405   -112.60739    435.42649    23.499696    22.154799   0.32435423    435.75085   0.90195387   -2377.5026 
   11400   -102522.05   -92861.084    234.60398    20724    226657.83    47.086884    158.94282    -134.0717    116.38953    435.32546    23.500416    22.155478   0.37486845    435.70033    1.0324078   -2377.5118 
   11500   -102446.03   -92811.685    233.95739    20724    226717.65    7.1370682    78.076168   -131.27736    74.612397    435.26047    23.505271    22.160055   0.40736537    435.66783    -1.362926   -2420.1141 
   11600   -102512.46   -92872.188    234.10151    20724    226513.38   -14.031846   -21.360651    126.75354   -147.48843    435.13147    23.498163    22.153353   0.47186681    435.60333    10.998513   -2377.7843 
   11700   -102471.55   -92827.137    234.20191    20724    226540.36   -43.424461   -158.11526    12.150155    15.691722    434.93555    23.504854    22.159662   0.56982699    435.50537    6.3970425   -2416.7779 
   11800   -102512.45   -92845.177    234.75721    20724     226435.4   -10.757831   -101.06512    85.347387   -16.555756    435.05376    23.496215    22.151517   0.51071962    435.56448     9.213417   -2407.7841 
   11900    -102435.6   -92845.279    232.88851    20724    226373.27    48.602398   -70.419027    223.54297   -7.3167515    435.24431    23.487849     22.14363   0.41544472    435.65976  -0.87415648   -2403.6496 
   12000   -102480.59    -92844.76     233.9937    20724    226488.69    21.545999     21.09206     68.59277   -25.046833    435.28153    23.492831    22.148327   0.39683493    435.67837    27.082705   -2428.5259 
   12100   -102446.55   -92806.707    234.09106    20724    226377.56   0.47256722    167.66783   -109.66063   -56.589497    435.11083    23.491673    22.147235   0.48218424    435.59302    17.981101   -2460.4424 
   12200   -102484.22   -92827.941    234.49006    20724    226315.87   -58.885734   -54.386731    107.61834   -229.88881    435.00376    23.491363    22.146942   0.53571828    435.53948    10.680942   -2431.6476 
   12300   -102409.99   -92804.193     233.2642    20724    226444.28   -3.8523448    44.864861    181.80346   -238.22536    435.12048    23.494874    22.150253   0.47735931    435.59784    9.1954615   -2453.7045 
   12400   -102480.41   -92780.011    235.56164    20724    226331.97   -8.1536207    91.768953   -65.221415   -51.008401    435.03163    23.491446    22.147021   0.52178588    435.55341   0.50913066   -2474.8916 
   12500   -102398.97   -92724.942     234.9211    20724    226493.03    12.063188   -111.91572     40.58207    107.52321    435.25291    23.493828    22.149267   0.41114451    435.66406   -17.148357   -2507.8589 
   12600   -102411.32   -92768.309    234.16787    20724    226409.32    86.281438    20.775163    526.53336   -288.46421    434.99788    23.496371    22.151664   0.53866134    435.53654    0.2928127   -2488.2885 
   12700    -102409.1   -92702.761    235.70568    20724    226408.59    -59.64492   -88.020129   -215.57561    124.66098    434.97911     23.49684    22.152107   0.54804434    435.52716   -19.438075   -2528.5316 
   12800    -102329.6   -92683.546    234.24195    20724    226445.11    8.4224951   -24.762835    151.69336   -101.66304    435.12462    23.494806    22.150188   0.47528939    435.59991   -22.012855   -2546.8517 
   12900   -102355.29   -92664.625     235.3252    20724    226355.01   -35.299062     96.28211   -320.34615    118.16685    435.05403    23.492037    22.147578   0.51058653    435.56461   -22.102304   -2568.6836 
   13000   -102358.92   -92674.043    235.18455    20724    226387.56   -2.8235935    -133.1451   -11.845144    136.51947    434.91888    23.497376    22.152612   0.57816201    435.49704   -26.888962   -2554.5856 
   13100   -102290.95   -92638.872    234.38817    20724    226415.11   -33.996517   -81.979813    108.82646    -128.8362    435.01403    23.496236    22.151537   0.53058553    435.54461   -36.335928   -2579.1849 
   13200   -102323.53   -92635.217    235.26798    20724    226347.26    15.884891   -65.608157    132.06063   -18.797796    434.66622    23.502112    22.157077   0.70449084    435.37071   -23.845144   -2600.5393 
   13300   -102371.52   -92652.577    236.01195    20724     226324.9   -92.715781   -35.411673   -168.91318   -73.822494    434.73532    23.499083    22.154221   0.66994033    435.40526    4.5982059   -2608.4993 
   13400   -102363.62   -92639.205    236.14478    20724    226284.97   -80.627546   -179.54075   -68.653022    6.3111301    434.52782     23.50262    22.157556   0.77369098    435.30151   -10.135164   -2609.6051 
   13500   -102269.18   -92626.937    234.14934    20724    226360.19    79.071299    183.21099   -81.674362    135.67726    434.82702    23.498437    22.153612   0.62409182    435.45111   -12.470025   -2627.4448 
   13600   -102342.65   -92592.356    236.77314    20724    226275.63   -47.318988   -6.9656105   -441.76126    306.76991    434.74009    23.496397    22.151689    0.6675564    435.40764   -16.916921   -2653.2329 
   13700   -102331.66   -92591.748    236.52099    20724    226199.82    16.969384     209.1822   -6.9177563   -151.35629    434.60628    23.496076    22.151387   0.73445793    435.34074   -9.5110263   -2670.3438 
   13800   -102332.19   -92564.723    237.19019    20724     226330.6    -1.067852    22.796858    75.230062   -101.23048    434.69586    23.500446    22.155506   0.68967214    435.38553   -4.8725657   -2697.4224 
   13900   -102289.58   -92568.235    236.07023    20724    226169.67    73.486278   -27.619705    29.536075    218.54246    434.71145    23.491668    22.147231   0.68187416    435.39333   -7.5054473   -2699.3972 
   14000   -102252.62   -92561.514    235.33589    20724    226443.34   -121.88594   -62.573826   -278.34787    -24.73613    434.53866    23.510549    22.165031   0.76826852    435.30693   -1.2044817   -2698.9467 
   14100   -102277.25    -92519.36    236.95767    20724     226307.9    36.917577    107.48191   -83.345139    86.615961    434.58947    23.502143    22.157106   0.74286585    435.33233   -27.790651   -2726.6988 
   14200   -102232.58    -92522.93    235.78624    20724    226202.86   -36.813142    54.845227   -166.40691    1.1222612    434.83883    23.489951    22.145611   0.61818729    435.45701   -32.072429   -2716.8942 
   14300   -102193.04   -92461.341    236.32157    20724    226367.59    3.8450685   -79.325264   -261.74785    352.60832    434.49841    23.507706     22.16235   0.78839681     435.2868   -42.638509   -2766.0735 
   14400   -102172.53   -92445.917    236.19811    20724    226480.84   -26.604162   -134.29317   -71.320234    125.80091    434.79791    23.505485    22.160257   0.63864479    435.43656   -39.500958   -2782.4184 
   14500   -102273.28    -92468.92    238.08613    20724    226323.23    -46.57073    47.025268   -142.29507   -44.442393    434.84334    23.496078    22.151388   0.61593195    435.45927   -40.910782    -2763.815 
   14600    -102156.2   -92414.194      236.572    20724    226322.49   -43.281288    22.978263   -22.984345   -129.83778    434.84238    23.496065    22.151376   0.61641226    435.45879   -65.121728   -2796.0832 
   14700   -102184.33   -92426.783    236.94934    20724    226347.04    17.862983   -156.57375    73.453767    136.70893     434.7284     23.50042    22.155482   0.67340165     435.4018   -46.708034    -2805.087 
   14800   -102155.14   -92367.326    237.68425    20724    226368.64   -34.481829    53.311175   -88.300038   -68.456626    434.56386     23.50599    22.160733   0.75567207    435.31953   -64.807838   -2843.8501 
   14900   -102180.99   -92372.289    238.19145    20724    226254.86    63.471425    103.52446    143.07067   -56.180861    434.53417    23.500885     22.15592    0.7705153    435.30468   -57.950165   -2856.5734 
   15000   -102146.12    -92361.53    237.60607    20724    226261.43   -36.989092   -40.003517     202.0723   -273.03606    434.40502    23.504719    22.159534   0.83508831    435.24011   -59.650877   -2861.1023 
   15100   -102210.36   -92350.862    239.42513    20724    226204.07   -13.835734   -46.792109   -338.87028    344.15519    434.50168    23.499125    22.154261   0.78676049    435.28844   -68.495403   -2866.1677 
   15200   -102165.22   -92337.322    238.65762    20724    226319.57   -27.019359   -162.64632    40.312278    41.275965    434.73079    23.498929    22.154076   0.67220711    435.40299   -39.196744    -2905.871 
   15300   -102041.87   -92275.911    237.15349    20724    226335.25   -53.388827    38.211314    61.500008    -259.8778    434.65097    23.501901    22.156877   0.71211528    435.36308   -46.174603   -2960.1542 
   15400   -102153.93   -92259.185    240.28088    20724    226392.89   -70.130595    52.910368    197.01442   -460.31657    434.60507    23.506134    22.160869   0.73506308    435.34014   -60.339046   -2962.1745 
   15500   -102099.54   -92233.167    239.59193    20724     226558.2   -56.685989    109.37189   -260.37635   -19.053509    434.86495    23.507687    22.162333   0.60512482    435.47008   -77.922897   -2966.5263 
   15600   -102074.03   -92251.665    238.52328    20724    226552.45    9.4775275     58.54379   -268.33564    238.22444    435.03224    23.502869     22.15779   0.52148146    435.55372   -66.315835    -2964.059 
   15700   -102090.31   -92306.368    237.59017    20724    226470.13    30.837198     35.21366   -17.415322    74.713255    434.92604    23.501467    22.156469   0.57457886    435.50062   -71.881565   -2908.4006 
   15800   -102012.42   -92243.416    237.22766    20724    226267.46    19.189507    68.555416   -20.596966    9.6100725    434.91159    23.491339     22.14692   0.58180363     435.4934   -71.145475   -2976.6689 
   15900   -102000.97   -92271.284    236.27274    20724    226463.42    49.541162    140.77698    77.536067   -69.689563    434.83057    23.503699    22.158573   0.62231742    435.45288   -63.455052   -2953.2387 
   16000   -102092.02    -92277.98    238.32127    20724    226469.38    26.455204    2.7732996    100.77582    -24.18351    435.03254    23.498551     22.15372   0.52132843    435.55387   -36.570454   -2974.0939 
   16100   -102092.82   -92308.741    237.59372    20724    226325.84   -39.971005   -108.04771    -103.6157    91.750399    434.87617    23.495326    22.150679    0.5995153    435.47568   -51.161725   -2930.6271 
   16200   -102041.22   -92255.075    237.64367    20724    226328.82    19.734186    87.434463   -50.150517    21.918613     434.8459    23.496299    22.151596   0.61464814    435.46055   -46.671958   -2991.5978 
   16300   -102008.37     -92230.9     237.4332    20724    226379.89    56.096165    71.309662    257.68606   -160.70723    434.88802    23.497812    22.153022   0.59359147    435.48161   -62.324262   -2999.6784 
   16400   -102026.53   -92287.301    236.50451    20724    226453.19   -80.960859   -179.89177    -105.1391    42.148292    434.71377    23.506325    22.161048   0.68071509    435.39448   -17.447893   -2981.8666 
   16500   -102029.42   -92235.939    237.82181    20724    226455.83      7.27792   -41.409306   -82.071467    145.31453    434.81893     23.50362    22.158498   0.62813574    435.44706   -30.153804   -3025.4176 
   16600   -101977.38   -92207.735    237.24314    20724    226395.44   -36.100701    81.567679    25.817845   -215.68763    434.63044     23.50558    22.160347   0.72237783    435.35282   -45.126922   -3041.2463 
   16700   -101962.96   -92203.939    236.98509    20724    226337.91    71.289855   -91.386379    142.38916    162.86679    434.82913    23.497224    22.152468   0.62303702    435.45216   -27.091364    -3069.497 
   16800   -102001.03    -92194.52    238.13839    20724    226299.47   -64.311913   -105.22529   -47.540169   -40.170275    434.77229    23.496764    22.152035   0.65145476    435.42375   -37.316016   -3064.4843 
   16900   -102034.86   -92191.746    239.02727    20724    226470.18   0.21099315   -85.194588   -12.301264    98.128832    434.82449    23.504214    22.159058   0.62535745    435.44984   -29.560937   -3074.3521 
   17000   -102027.86   -92199.036    238.68014    20724     226392.7    9.7662495    76.775314   -57.535629    10.059063    434.88581    23.498536    22.153705   0.59469582     435.4805   -33.694538   -3067.9816 
   17100   -101973.48   -92178.532    237.85758    20724    226454.24    73.803786    39.351833    131.19033    50.869195    434.91192    23.501024    22.156051      0.58164    435.49356   -15.552561   -3108.9586 
   17200   -102004.24   -92160.576    239.04047    20724    226487.48   -34.914139    37.350018   -99.517765    -42.57467    434.85099    23.504395    22.159229   0.61210344     435.4631   -22.642389    -3113.437 
   17300      -101927   -92142.717    237.59855    20724    226514.43    80.502969   -13.385886     338.0838   -83.189008    434.80395    23.507065    22.161746   0.63562442    435.43958   -35.469897   -3123.8558 
   17400   -101960.66   -92144.229    238.37924    20724    226385.56    74.824913   -150.01268    129.39065    245.09677    434.69531    23.503314     22.15821   0.68994698    435.38525   -11.051963   -3153.9824 
   17500   -102024.98   -92129.544    240.29768    20724     226537.2   -54.901687    17.701527    -186.0205    3.6139136    434.64988    23.512413    22.166788   0.71265797    435.36254   -25.695843   -3143.4023 
   17600   -101915.62   -92157.348    236.96684    20724    226364.49    -34.42321   -138.34738    21.242858    13.834894    434.53198    23.506636    22.161342   0.77160855    435.30359   -4.8754546   -3143.1014 
   17700   -101926.87   -92109.389    238.40466    20724    226456.52    54.832235    6.6600358   -80.616693    238.45336    434.65363    23.508124    22.162745   0.71078307    435.36442   -26.747385    -3171.563 
   17800   -101886.84   -92071.622    238.34983    20724    226481.67    14.023995     8.404348    71.130371   -37.462733     434.5125    23.513247    22.167574   0.78134901    435.29385   -26.379736    -3207.632 
   17900   -101931.15   -92016.837    240.75608    20724    226449.88    2.4144899    137.07062   -228.51691    98.689759    434.65476    23.507749    22.162391   0.71022025    435.36498   -24.745262   -3267.2682 
   18000   -101892.06   -91996.888    240.29126    20724    226296.97   -68.743697   -166.67877    -112.0878    72.535473     434.3124    23.509071    22.163637   0.88139834     435.1938   -44.346946   -3271.2062 
   18100   -101935.97   -92035.205    240.42729    20724    226280.55   -7.9368229   -118.74881    372.48999   -277.55165    434.45994    23.504227     22.15907    0.8076319    435.26757   -44.681042   -3236.9385 
   18200   -101864.98   -91985.075    239.92068    20724     226297.1   -16.143357   -32.544404    130.08047   -145.96614    434.40931    23.506455    22.161171   0.83294434    435.24226   -42.902885   -3286.3032 
   18300   -101844.74       -91967    239.86803    20724    226359.72  -0.59833003    83.789974   -107.42093     21.83597    434.16826    23.516233     22.17039   0.95347223    435.12173   -61.131657   -3285.8579 
   18400   -101869.83   -91978.275    240.20352    20724    226458.98     90.56117   -39.800666   -136.27088    447.75505    434.30352    23.517725    22.171797   0.88583968    435.18936    -67.82624   -3273.0438 
   18500   -101811.43   -91993.302    238.42052    20724    226250.94    33.408735   -45.902451    110.56878     35.55987    434.15233    23.511013    22.165468   0.96143336    435.11377   -56.430506   -3271.3778 
   18600   -101842.38   -91926.467    240.79494    20724    226352.38   -19.832187    80.812152   -179.93566    39.626946    434.31626    23.511845    22.166253   0.87947158    435.19573   -69.945025   -3321.4515 
   18700   -101851.02   -91973.593    239.86034    20724    226307.18    14.815525    151.10547   -29.949246   -76.709649    434.36368    23.508214    22.162829   0.85575936    435.21944   -51.381329   -3295.2295 
   18800   -101892.45    -91981.47    240.67525    20724    226178.75    34.170998    109.82823   0.16825487   -7.4834881    434.14158    23.507553    22.162206   0.96680955    435.10839   -59.681126   -3286.3139 
   18900   -101867.17   -91959.535    240.59396    20724    226166.92    13.035554     87.55177    240.41747   -288.86258     434.1965    23.505451    22.160225   0.93935023    435.13585   -75.198928   -3292.7196 
   19000    -101781.5   -91949.097    238.76719    20724    226265.67    12.984985    18.690484    76.874586   -56.610116      434.381    23.505589    22.160355    0.8470987     435.2281    -42.83828   -3332.4626 
   19100   -101802.59   -91966.468    238.85747    20724    226154.06    101.83614    88.578069    77.372718    139.55764    434.14674     23.50613    22.160865   0.96423053    435.11097    -41.55574   -3327.5803 
   19200   -101904.69   -91942.564    241.91715    20724    226139.21   -83.506856    65.067027    -32.74686   -282.84073      434.097    23.506705    22.161407   0.98909786     435.0861   -55.140428   -3329.0204 
   19300   -101858.42   -91903.071    241.75266    20724    226250.15    25.252546   -15.992209    -60.86359    152.61344      434.247    23.508409    22.163014   0.91410215     435.1611   -67.860335   -3357.1498 
   19400    -101835.1   -91957.667     239.8605    20724    226017.52    5.2607782    259.77783   -222.35092   -21.644576    434.16777    23.498464    22.153637   0.95371504    435.12148    -62.97877   -3314.4535 
   19500   -101874.38   -91916.838    241.80599    20724    226183.57    47.979458     110.1626      98.9537   -65.177927    434.29767    23.503579     22.15846   0.88876695    435.18643   -67.462347   -3351.4982 
   19600   -101849.38   -91884.137    241.99304    20724    226297.26    -57.85095   -209.69297    272.01214   -235.87202    434.40085    23.506693    22.161395    0.8371738    435.23803     -64.7105   -3381.3159 
   19700   -101773.02   -91866.039    240.57802    20724    226229.66    82.138996    242.18955    72.353254   -68.125819    434.37118    23.503984    22.158842   0.85201163    435.22319   -88.585822   -3385.7903 
   19800   -101786.33   -91865.273    240.91985    20724    226202.69    21.037565     69.52825   -30.214585    23.799031    434.07625    23.510566    22.165047   0.99947537    435.07572   -78.519662   -3394.0657 
   19900   -101747.53    -91823.08    241.00234    20724    226236.91   -4.6659804   -78.558616    192.21102   -127.65035    434.16764     23.50987     22.16439   0.95377897    435.12142   -105.11731   -3409.4489 
   20000   -101661.05   -91820.209    238.97188    20724    226101.25    74.381611    93.396014    245.24994   -115.50112    434.18017    23.502481    22.157424    0.9475131    435.12769   -88.732325   -3436.3689 
   20100   -101760.78   -91778.397    242.40921    20724    226225.57   -88.517481   -69.998834   -313.87112    118.31751    434.23545    23.507445    22.162104   0.91987662    435.15532    -109.1533   -3449.2583 
   20200   -101752.69   -91807.545    241.50499    20724    226143.74    74.845537    198.56552    12.421094    13.549997    434.30895    23.501204     22.15622   0.88312331    435.19208   -111.62291    -3429.139 
   20300   -101729.69   -91793.992    241.27555    20724    226005.45    27.370976    57.221653    78.744854    -53.85358    434.05275     23.50095    22.155981    1.0112245    435.06398    -109.0518   -3447.0098 
   20400   -101786.64     -91793.6     242.6679    20724    226004.98   -54.456341   -122.54134   -297.90926    257.08157    433.99712    23.502431    22.157378    1.0390402    435.03616     -104.969   -3449.9866 
   20500   -101632.13   -91789.629    239.01225    20724    225883.03    46.328543    4.4724475    126.33827    8.1749107    433.79218    23.501639    22.156631    1.1415076    434.93369    -89.38478   -3477.8536 
   20600   -101723.65   -91803.667    240.89392    20724    226169.87   -4.6612248    71.736157   -282.47435    196.75452    434.07166    23.508985    22.163556    1.0017725    435.07343   -72.061261   -3472.0896 
   20700   -101745.29   -91794.038    241.65318    20724    225988.97   -29.105846    14.613113   -165.65311    63.722464     433.7646    23.507897    22.162531    1.1552978     434.9199   -86.847653   -3473.2008 
   20800   -101618.86   -91744.913    239.77602    20724    225995.72   -75.202827   -79.721559   -333.15339    187.26647    433.76318    23.508287    22.162898    1.1560102    434.91919   -77.300067   -3527.0283 
   20900   -101682.86   -91740.289    241.44227    20724    225941.11    37.227989   -8.4640071    312.30868   -192.16071    434.01981    23.498496    22.153668    1.0276965     435.0475   -121.75314   -3497.2447 
   21000   -101656.52   -91717.396    241.35857    20724    225868.17    62.499817    160.60765   -119.46547    146.35727    433.74596    23.502118    22.157083    1.1646178    434.91058   -104.28983   -3541.5256 
   21100   -101751.07   -91743.994    243.00871    20724    225915.12    12.946967    6.5062599   -150.97895    183.31359    433.94248    23.499238    22.154367    1.0663579    435.00884   -92.412842    -3523.756 
   21200   -101743.31   -91715.877    243.50311    20724    225959.61    42.147972    114.13782    309.47605   -297.16995    433.76056    23.506479    22.161194    1.1573207    434.91788   -115.43695   -3528.8649 
   21300   -101665.74   -91689.062    242.27067    20724    226097.25    49.658335    144.84202   -126.42651    130.55949    434.09997    23.504444    22.159275   0.98761544    435.08758   -91.823492   -3580.3457 
   21400   -101578.38   -91744.051    238.81379    20724    225714.56    30.108856    82.088369   -145.25629    153.49449     433.6612    23.496421    22.151712    1.2069978     434.8682   -68.272438   -3556.8317 
   21500   -101681.43   -91697.504    242.44667    20724    225973.29    42.622001   -47.854249    178.31704   -2.5967823    433.90477    23.503284    22.158182    1.0852139    434.98999   -75.806009   -3590.2424 
   21600   -101628.66   -91664.131    241.97556    20724    225891.29   -40.964695   -76.498749    209.10343   -255.49877    433.89669    23.499238    22.154368    1.0892532    434.98595   -65.229968   -3634.4136 
   21700   -101675.32   -91642.756    243.62785    20724     225862.5   -99.779894   -211.05385    82.081787   -170.36762    433.80861    23.500126    22.155205    1.1332971     434.9419    -86.68818   -3633.9193 
   21800    -101547.4   -91687.269    239.44048    20724    226116.39    82.112591    221.39544    136.46787   -111.52554    433.73428    23.515345    22.169553    1.1704591    434.90474   -47.503375   -3629.5117 
   21900   -101629.05   -91647.434    242.39048    20724    225942.78     30.69686    49.285823    73.250995   -30.446238    433.71462    23.506849    22.161543    1.1802902    434.89491   -58.051841     -3663.64 
   22000   -101632.26   -91630.861    242.87085    20724    225971.92   -59.671827   -121.79211    108.93394   -166.15732    433.87414    23.504043    22.158897    1.1005283    434.97467   -76.058837   -3660.4347 
   22100   -101620.47   -91633.184    242.52813    20724    225745.23   -105.94082    -19.14567   -292.62203   -6.0547491    433.56425    23.500645    22.155694    1.2554773    434.81972   -82.036204   -3654.8445 
   22200   -101660.04   -91643.542    243.23768    20724    226093.93   -23.545748   -41.697063   -142.66022    113.72004    434.18683     23.50192    22.156896   0.94418283    435.13102   -87.433274   -3634.9642 
   22300   -101571.85   -91661.026    240.67147    20724    226123.84    40.293347   -85.025738   -28.590993    234.49677    433.99043    23.508792    22.163374     1.042383    435.03282   -72.119582   -3637.1371 
   22400   -101529.37   -91548.828    242.36443    20724    226377.51     52.66959    141.90553    89.085023    -72.98178    434.12373    23.518363    22.172398   0.97573577    435.09946    -98.08011   -3716.1434 
   22500   -101543.03   -91600.661     241.4376    20724    226170.33    28.779145    53.625768    199.53003   -166.81836    433.92195    23.513064    22.167402    1.0766248    434.99858   -102.96297   -3666.7704 
   22600   -101644.26   -91563.742    244.79222    20724    226094.74     -63.5524   -59.614681   -110.92379   -20.118731    434.25696    23.500064    22.155146   0.90911943    435.16608   -89.324262   -3715.6966 
   22700   -101565.01   -91539.296    243.46151    20724    226228.38   -47.903458   -136.91469   -54.748212    47.952526    434.13472    23.510318    22.164813   0.97024069    435.10496    -105.2284   -3722.9408 
   22800   -101671.34   -91640.688    243.58128    20724    226096.82    -30.72074   -26.544279    21.117724   -86.735666    434.13728    23.503411    22.158302   0.96896108    435.10624   -87.534469   -3645.2807 
   22900   -101585.71    -91628.32    241.80224    20724    226239.52   -72.958948   -149.96343     111.8472   -180.76061    434.13422     23.51091    22.165371   0.97048978    435.10471   -98.072114   -3641.0822 
   23000   -101566.53   -91634.219    241.19333    20724    226189.92   -26.065562   -129.41937   -39.450484    90.673162    433.99151    23.512198    22.166585    1.0418441    435.03336   -88.802945   -3647.3464 
   23100   -101630.23   -91612.284    243.27285    20724    226073.77   -20.782292   -120.02892     101.7642   -44.082148    434.11568    23.502798    22.157723   0.97976223    435.09544    -109.6923   -3655.5446 
   23200   -101579.37   -91596.013    242.43272    20724    226254.28   -41.622926    -92.75527    81.782429   -113.89594    434.36913    23.505318      22.1601   0.85303677    435.22216   -96.317465   -3680.0402 
   23300   -101649.94   -91548.574    245.29847    20724    226021.98   -96.626183   -122.50107   -83.312711   -84.064766    434.26934    23.495948    22.151265   0.90293107    435.17227   -101.62566   -3726.7661 
   23400   -101579.69   -91561.499    243.27877    20724    226107.13   -25.159605    35.252154   -195.30513    84.574164     434.2932    23.499728    22.154829   0.89099775     435.1842   -100.57801   -3717.8121 
   23500   -101602.56   -91587.137    243.21148    20724    226153.29    33.737099    85.008829    102.22238   -86.019917    434.13149    23.506503    22.161217   0.97185657    435.10334   -86.510295    -3708.768 
   23600   -101552.09   -91580.993    242.13508    20724    226224.12    41.783822    26.677456    134.14537   -35.471362    434.22278    23.507712    22.162357     0.926211    435.14899   -99.066716   -3699.3108 
   23700   -101609.25    -91535.24    244.63411    20724    225962.06   -25.966756   -29.028619    93.956441   -142.82809    433.95069    23.501457    22.156459    1.0622567    435.01294   -102.45205   -3749.0861 
   23800   -101635.48   -91547.636    244.97003    20724     226177.3    44.884856    37.941746   -206.97581    303.68863    434.30433    23.503073    22.157983   0.88543739    435.18976   -113.64001   -3722.2021 
   23900   -101677.77   -91547.541     245.9994    20724    226129.18   -21.755198   -207.68204    23.904698    118.51175    434.06785    23.506973     22.16166    1.0036736    435.07153   -98.778811   -3740.3103 
   24000   -101488.11   -91556.147    241.18468    20724    225910.48   -24.223121    20.346954    74.322177   -167.33849     433.7122    23.505234     22.16002    1.1814986     434.8937   -81.033783   -3755.2394 
   24100   -101581.58    -91543.82    243.75392    20724    226101.69    3.3849025    23.943155   -71.996541    58.208094     434.0946     23.50482     22.15963   0.99029803     435.0849   -94.745985   -3751.0313 
   24200   -101485.61    -91497.37    242.55139    20724    226150.14    35.737447   -36.039363    387.16785   -243.91615    434.23338    23.503581    22.158462   0.92091097    435.15429   -109.50439   -3782.9972 
   24300   -101544.86   -91501.234    243.89648    20724    226183.53    12.406207   -9.3646592   -92.127903    138.71118    433.82985    23.516246    22.170401     1.122677    434.95252   -131.92243   -3756.8092 
   24400   -101369.66   -91482.926    240.08649    20724    225906.14    68.198358     24.24909   -46.286862    226.63285    433.88821    23.500241    22.155312    1.0934957     434.9817   -152.56008   -3763.9208 
   24500   -101444.21    -91442.85    242.87001    20724    226036.36     -11.0028    46.434191   -177.18658     97.74399    433.80641    23.509229    22.163786    1.1343959     434.9408   -152.13398   -3799.6349 
   24600   -101525.97   -91392.612    246.07539    20724    226073.32   -49.477283    85.269686     -6.22688   -227.47466    433.89288    23.508808    22.163389    1.0911582    434.98404   -164.65556   -3836.9036 
   24700   -101507.14   -91440.233    244.46173    20724     226139.1    -27.76151   -86.722407    181.00913   -177.57126    433.71368    23.517085    22.171193    1.1807589    434.89444   -132.12531   -3820.1915 
   24800   -101458.34   -91412.115    243.95942    20724    226179.39    32.969812    258.73638   -156.95547   -2.8714775    433.90303    23.514047    22.168329    1.0860835    434.98912   -149.17275   -3834.8289 
   24900   -101509.83   -91457.847    244.09927    20724    226153.57    6.5357804    165.16118   -162.92055    17.366711    434.07363    23.508084    22.162707    1.0007858    435.07441   -130.58884   -3809.3531 
   25000   -101453.69   -91411.656    243.85759    20724    226016.87   -4.3872237   -2.4765077   -20.494542     9.809379    433.91689    23.505223    22.160009    1.0791531    434.99605   -121.61556   -3868.1032 
   25100   -101373.76   -91398.756    242.23007    20724    226085.34    80.322393   -209.66797    394.72733    55.907818    433.76048    23.513021    22.167361    1.1573617    434.91784   -143.99767   -3862.6244 
   25200   -101499.13   -91405.137    245.11945    20724    226286.05    7.5888089    147.57849   -22.193398   -102.61867    434.41707    23.505672    22.160433   0.82906292    435.24614   -133.24944   -3860.5578 
   25300   -101456.39   -91417.841    243.77319    20724     226157.2    42.400809   -58.863452   -180.38571    366.45159    434.26925    23.502977    22.157893   0.90297688    435.17222   -140.31166   -3846.1241 
   25400   -101425.74   -91398.681    243.49406    20724    226267.47   -88.676609   -117.66547    39.580813   -187.94517    434.48528    23.502861    22.157783   0.79496107    435.28024   -142.25003      -3854.4 
   25500   -101446.31   -91394.532    244.09423    20724    226145.59    19.231351    84.190917    154.72747   -181.22433    434.07631    23.507597    22.162248   0.99944688    435.07575   -145.25717   -3868.4416 
   25600   -101343.66   -91368.911    242.22387    20724    226071.65   -12.879375   -129.33341   -252.44617    343.14145    433.98622    23.506193    22.160924    1.0444904    435.03071   -141.71187   -3898.2693 
   25700   -101491.21   -91379.491     245.5498    20724    226225.54   -83.810816   -6.2527706   -129.21562   -115.96406    433.79424    23.519395     22.17337    1.1404797    434.93472   -130.28488   -3892.9264 
   25800   -101417.26   -91378.511    243.77798    20724    226096.56    106.11356    141.28516    198.71715   -21.661638    433.88026    23.510358    22.164851    1.0974718    434.97773   -120.45346   -3918.4071 
   25900   -101429.84   -91361.713    244.49135    20724    226098.35   -2.7208049   -234.40537    196.22767     30.01528    433.79855    23.512665    22.167026    1.1383231    434.93688   -130.80339   -3918.2771 
   26000   -101377.02   -91379.771    242.77023    20724    226204.08   -4.6079861   -1.9698035    175.15728   -187.01144    433.93364    23.514501    22.168757    1.0707798    435.00442   -140.71236    -3889.456 
   26100   -101487.71   -91400.015    244.96652    20724    226055.69    61.891628    -152.2251    347.21827   -9.3182894    433.66256    23.514133     22.16841     1.206318    434.86888   -148.48775   -3871.1223 
   26200   -101457.24   -91357.998    245.24698    20724    226106.87   -9.2404928    -48.88315   -229.98398    251.14565    433.58111    23.519003    22.173001     1.247043    434.82816   -147.31313   -3909.7614 
   26300   -101430.95   -91378.963    244.09929    20724    226042.93    116.53838    53.383223    18.282367    277.94956    433.51388    23.517501    22.171585    1.2806602    434.79454   -129.61179   -3915.4145 
   26400   -101423.93   -91326.893    245.19339    20724    226279.19   -76.394294   -116.43859    119.63654   -232.38083    433.75456    23.523259    22.177014    1.1603194    434.91488   -153.23688   -3929.2378 
   26500   -101401.57   -91354.456    243.98095    20724    226136.71    16.479464    217.05616    46.916103   -214.53387    433.55527    23.521256    22.175125    1.2599635    434.81524   -131.87854   -3932.9899 
   26600   -101450.75   -91375.024    244.67599    20724    226133.31   -45.477517   -51.489752   -116.14917     31.20637    433.51803     23.52209    22.175911    1.2785872    434.79661   -116.32553   -3927.2005 
   26700   -101356.36   -91292.931    244.37724    20724       226313     47.41848   -20.211704     86.87909    75.588053    433.89545    23.521197     22.17507    1.0898765    434.98532    -115.3088   -4008.2342 
   26800   -101381.06   -91273.679    245.44456    20724    226123.74    39.609503    217.98738    148.56742   -247.72629    434.02027    23.507979    22.162608    1.0274651    435.04773   -128.61529   -4021.2882 
   26900   -101317.53   -91322.182    242.72397    20724    225979.11    21.999082    88.757651   -266.10784    243.34744    434.15989    23.496681    22.151956   0.95765622    435.11754   -136.61987   -3968.4625 
   27000   -101386.87   -91274.339    245.56956    20724    226227.06   -92.355915   -201.09772   -129.80753     53.83751    433.84484    23.518102    22.172152    1.1151797    434.96002   -118.34782   -4024.5309 
   27100   -101339.19   -91266.919    244.59195    20724    226022.94    36.453204     189.8941    115.10042   -195.63491    433.66752    23.512295    22.166677    1.2038398    434.87136   -126.35668   -4037.6477 
   27200   -101226.27   -91232.889    242.67627    20724    225817.58    23.730423    9.3305938   -194.02381    255.88448    433.64632    23.502186    22.157146    1.2144397    434.86076   -139.18018   -4065.5777 
   27300    -101302.7   -91192.562    245.51159    20724    226175.51    37.159226   -110.66838    118.92728    103.21878    433.76652    23.517545    22.171627     1.154341    434.92086   -139.01518   -4098.3166 
   27400   -101327.67   -91210.288    245.68751    20724    226011.76    42.225399   -121.83359    202.10779    46.401996    433.83004    23.507309    22.161977    1.1225783    434.95262   -121.67189   -4103.9164 
   27500      -101266   -91228.089    243.75754    20724    225976.02   -43.821019    96.586691   -78.177543    -149.8722    433.70379    23.508871    22.163449    1.1857038     434.8895   -130.96493   -4074.5559 
   27600   -101349.28   -91248.283    245.28946    20724    226147.18    65.993308    61.189361    115.55585    21.234712    433.77438    23.515859    22.170037    1.1504123    434.92479   -120.88471   -4067.5278 
   27700   -101408.26   -91169.857    248.62626    20724    226081.13   -72.143115   -141.16478    56.761863   -132.02643    433.74366    23.513258    22.167584    1.1657725    434.90943   -124.40761   -4140.8005 
   27800    -101217.1    -91185.25    243.61036    20724    226083.82     23.84498   -202.05509    59.972702    213.61733    433.91884    23.508651    22.163241    1.0781815    434.99702   -131.11832   -4121.5548 
   27900    -101311.5   -91166.834    246.34998    20724    225999.29    -67.25239    10.706282    51.416285   -263.87974    433.73133    23.509336    22.163887    1.1719349    434.90327   -135.24853   -4139.0038 
   28000   -101317.02   -91186.482    246.00695    20724    226052.06    60.085834    208.50245    62.726876    -90.97182    433.67274    23.513668    22.167972    1.2012295    434.87397   -129.47525   -4130.2138 
   28100   -101153.55   -91157.137    242.74991    20724    226045.95    109.33668   -37.748951   -65.879885    431.63889    433.49124    23.518272    22.172312      1.29198    434.78322   -143.58071   -4148.6141 
   28200    -101271.5   -91130.182     246.2688    20724    226059.72   -10.579898    35.652122   -164.28774     96.89592     433.8077    23.510409    22.164899    1.1337521    434.94145    -123.5691   -4191.4957 
   28300   -101249.62    -91122.39     245.9265    20724    226353.74   -49.506351   -144.24586    219.10705   -223.38024    433.93016    23.522373    22.176178    1.0725205    435.00268    -126.6787   -4188.0019 
   28400   -101231.09   -91125.575    245.39929    20724    225958.86    31.059974    190.42816    111.21665   -208.46489     433.7281     23.50732    22.161987    1.1735491    434.90165   -133.04913   -4193.2825 
   28500   -101201.69   -91078.658    245.82463    20724    226086.14    53.771388    153.34874   -93.103585      101.069     433.8754    23.509948    22.164464    1.0999012     434.9753   -116.96671   -4256.4728 
   28600   -101111.67   -91062.879    244.02175    20724    226003.76   -52.987083   -108.50203   -260.84208    210.38287    433.76584    23.508633    22.163224    1.1546779    434.92052   -110.95293   -4273.6686 
   28700   -101223.41   -91069.404    246.57672    20724    226196.46   -35.169463    39.882331    65.858149   -211.24887    433.98672    23.512667    22.167028     1.044238    435.03096   -117.40812   -4258.2624 
   28800   -101224.35    -91086.27    246.19007    20724    226128.87   -17.512532    103.79438   -31.023595   -125.30838    433.95029    23.510141    22.164646    1.0624553    435.01274   -95.027019   -4269.7315 
   28900   -101249.27   -91063.078    247.35851    20724    226179.33    -41.31245    71.815376   -283.72819    87.975463    433.95185    23.512721    22.167079    1.0616765    435.01352   -122.97095   -4263.1294 
   29000   -101122.34    -91028.62    245.11286    20724    226179.18    55.317979   -24.166893    8.4787678    181.64206    434.03393     23.51049    22.164975    1.0206328    435.05457   -113.22028   -4311.3248 
   29100   -101112.26   -91065.155    243.98087    20724    226180.61    31.840381   -14.739714    326.04652   -215.78566    433.93864    23.513146    22.167479    1.0682824    435.00692   -107.07304   -4280.4765 
   29200   -101242.31   -91061.942    247.21705    20724    226137.83   -12.958986   -24.839645    124.63031   -138.66762    433.62397    23.519451    22.173424    1.2256172    434.84958   -119.98921   -4273.5008 
   29300   -101096.37   -91077.783    243.28829    20724    226084.26    71.427441    178.60305     19.65049    16.028782    433.90508    23.509046    22.163614    1.0850581    434.99014   -99.757778    -4281.563 
   29400   -101279.62     -91052.9    248.34256    20724    226194.85   -37.036897   -168.48659   -194.38903    251.76493    433.98673    23.512583    22.166949    1.0442358    435.03096   -117.18909   -4282.8014 
   29500   -101193.23    -91069.54    245.84064    20724    226073.82    -17.63305    2.1662855    42.108941   -97.174378    433.66554    23.514995    22.169223    1.2048309    434.87037   -85.698494   -4302.8524 
   29600   -101126.72   -91056.536    244.54132    20724    225907.33    56.094863   -9.2495853   -98.522373    276.05655    433.56907     23.50895    22.163523    1.2530628    434.82214   -99.020578   -4312.6696 
   29700   -101150.68   -91073.694    244.70649    20724    226069.45    40.458685    44.293579    179.55036   -102.46789    433.62117    23.515971    22.170143    1.2270131    434.84819   -99.521969   -4289.5524 
   29800   -101141.17   -91018.042    245.82695    20724    226031.05    46.152046    165.81807    15.772199   -43.134127    433.45655    23.518438    22.172469    1.3093227    434.76588   -103.42802   -4343.3115 
   29900    -101192.7   -91048.237    246.34494    20724    225757.36   -1.5331786    109.95123   -248.68308    134.13232    433.28393    23.508877    22.163454    1.3956349    434.67957   -99.133885   -4324.7416 
   30000   -101143.11   -91006.138    246.16323    20724    225880.28   -39.146091   -62.062965   -13.856706   -41.518602    433.46067    23.510482    22.164967    1.3072645    434.76794   -107.37406   -4354.7397 
   30100   -101135.41   -90963.193    247.01898    20724    225823.79    25.205322    241.14354   -55.425117   -110.10246    433.51019    23.506199    22.160929    1.2825035     434.7927    -125.8015    -4384.484 
   30200   -101129.63   -90965.074    246.83292    20724     225837.7   -44.275873   -132.74342   -180.59715    180.51295    433.36102    23.510968    22.165426     1.357092    434.71811   -105.10875   -4401.7829 
   30300   -101058.08   -90991.218    244.46061    20724    225829.12    -7.119977    252.97173   -208.64551    -65.68615    433.38302    23.509925    22.164442    1.3460903    434.72911   -91.939381   -4391.3435 
   30400   -101124.39   -90980.794    246.32409    20724    225893.17    -27.65214    -201.0824    99.969786    18.156198    433.75836    23.503083    22.157992    1.1584189    434.91678   -100.49214   -4393.0769 
   30500    -101145.2   -90961.802    247.29061    20724    225777.54    96.059212    95.099649    167.06846    26.009528    433.59474      23.5015    22.156499    1.2402285    434.83497   -107.00413   -4416.0713 
   30600   -101041.43   -90916.793    245.86369    20724    225909.47   -27.268481   -53.568986    95.654996   -123.89145    433.63613    23.507244    22.161915    1.2195355    434.85566   -115.82298   -4443.8982 
   30700   -101228.43    -90974.66    248.99953    20724    225884.33    37.557943    101.53658   -5.2023284    16.339577    433.50739    23.509426    22.163972    1.2839068    434.79129   -112.24178   -4396.2419 
   30800   -101095.15   -90958.287    246.16059    20724    225994.88    76.684084    263.74078    28.893776   -62.582305     433.5887    23.512973    22.167316     1.243249    434.83195   -113.33869   -4412.3556 
   30900   -101055.54   -90927.157    245.95463    20724    225906.72   -36.723863   -50.948949   -40.744176   -18.478464    433.77428    23.503357     22.15825    1.1504602    434.92474   -108.97874   -4445.3817 
   31000   -101063.18   -90984.821    244.73988    20724    225737.39    79.147744    3.0534359    23.925998     210.4638    433.48057    23.502505    22.157447    1.2973136    434.77789   -95.690222   -4411.6926 
   31100   -101255.31   -91014.577     248.6829    20724     225916.9    11.208042    72.531267   -66.380638    27.473496    433.47963    23.511873    22.166279    1.2977875    434.77741   -77.761762   -4394.8088 
   31200   -101104.25   -90963.005    246.26701    20724    225790.22   -33.855342    79.541843   -285.57923    104.47136     433.4731    23.505457     22.16023    1.3010516    434.77415   -96.238825   -4427.9971 
   31300    -101067.1    -90910.29    246.64489    20724    226037.36    14.088579    91.883335   -391.38557    341.76797    433.69346    23.512342    22.166721    1.1908708    434.88433    -110.6048   -4464.0185 
   31400   -101059.26   -90928.186    246.02004    20724    225911.01   -24.427043   -105.04543    17.836866     13.92744    433.48342    23.511464    22.165893    1.2958904    434.77931   -97.065128   -4461.1139 
   31500    -101058.1   -90899.989    246.67651    20724    225820.61   -70.777804    9.9350365   -71.083481   -151.18497      433.519    23.505795    22.160549    1.2781021     434.7971    -112.6316   -4473.6316 
   31600   -101013.04   -90886.648    245.90616    20724    225804.55   -7.2814638   -130.00191    26.902306    81.255208    433.44687    23.506914    22.161604    1.3141662    434.76103   -121.59556   -4483.6279 
   31700   -101043.53    -90850.24    247.53085    20724    225903.61   -46.711299    92.081239   -46.428627   -185.78651    433.60949    23.507661    22.162308    1.2328552    434.84234   -129.52313   -4509.4988 
   31800   -101035.48   -90849.428    247.35489    20724    225997.69   -7.5383673   -48.579489    209.42261   -183.45823     433.2968    23.521038    22.174919    1.3892011      434.686   -119.34233   -4520.3573 
   31900   -101046.38   -90830.161    248.08761    20724    225925.55    16.110681    61.600901   -1.9618066   -11.307051     433.4094    23.514228    22.168499    1.3329012     434.7423   -139.09811   -4525.6789 
   32000   -101057.67   -90895.256    246.78094    20724    225815.99    -8.719401   -80.795269   -11.163535      65.8006    433.38602     23.50916    22.163721    1.3445906    434.73061   -131.30994   -4471.0488 
   32100   -100991.24   -90838.679    246.54175    20724    225859.88    30.387858    45.454445   -82.110455    127.81958    433.40962    23.510804    22.165272    1.3327883    434.74241   -140.27288   -4519.0105 
   32200   -101090.52   -90830.374    249.15428    20724    225923.71   0.77475649   -212.32442   -85.704818    300.35351    433.55353    23.510224    22.164724    1.2608375    434.81436   -125.89535   -4540.3681 
   32300   -101110.62   -90846.383     249.2536    20724    225944.78   -56.161735    156.60938   -325.66941   0.57483307    433.53272    23.511884    22.166289    1.2712424    434.80396   -121.85453   -4527.1007 
   32400   -101048.85   -90819.909    248.39662    20724    226011.96    27.768261   -132.61687   -11.484062    227.40571    433.50683    23.516081    22.170246    1.2841848    434.79102   -107.03794   -4571.8157 
   32500    -101005.2   -90855.767    246.46571    20724    225915.18    59.822238    52.533255    8.3516998    118.58176    433.58206    23.509006    22.163576    1.2465684    434.82863   -84.090915   -4564.2307 
   32600   -101086.51    -90865.15    248.21248    20724    225920.73    1.4902112   -63.689829   -207.82144     275.9819    433.65518    23.507313     22.16198    1.2100109    434.86519   -75.488461   -4561.8502 
   32700   -101019.45   -90883.631    246.13505    20724    225784.27   -28.841894   -111.33596    82.499246   -57.688967     433.4262    23.506419    22.161138    1.3245007     434.7507   -66.893136   -4553.8597 
   32800   -100982.16   -90853.263      245.967    20724    225883.71    67.171851    113.58142    248.53855   -160.60442    433.54267    23.508437    22.163039    1.2662656    434.80893   -72.448698   -4580.5998 
   32900   -100977.75   -90866.831    245.53059    20724    226012.01    167.48676    155.74452    112.64529    234.07047    433.72049    23.510291    22.164788    1.1773535    434.89785   -84.391129   -4559.4072 
   33000   -101073.48   -90887.526    247.35273    20724    225802.39   -71.958662   -150.10421   -17.767858   -48.003922    433.42097    23.507504    22.162161    1.3271167    434.74808   -84.272952   -4533.2787 
   33100   -101051.03   -90885.178    246.86448    20724    225907.98    76.343623    351.32494    154.49576   -276.78984    433.41991    23.513028    22.167368    1.3276437    434.74756   -83.841917   -4541.8186 
   33200   -101081.93   -90830.425    248.94434    20724    225843.87   -33.554514    65.014327   -74.314467   -91.363402     433.4154    23.509814    22.164338    1.3299023     434.7453    -109.6013   -4568.0788 
   33300   -100946.93   -90809.402    246.17673    20724    225863.76    17.951947    31.636963    80.406418   -58.187538    433.39626    23.511369    22.165804      1.33947    434.73573   -122.14516   -4577.8278 
   33400   -101024.32    -90768.82    249.04157    20724    225780.36   -39.519749   -108.54201   -218.92132    208.90408    433.42596    23.506222    22.160951    1.3246198    434.75058   -140.79835   -4600.5367 
   33500   -100961.03   -90768.504     247.5122    20724    225622.47   -52.816168    8.7569647    23.812014   -191.01748    433.26705     23.50231    22.157264    1.4040729    434.67113   -135.26774   -4613.5317 
[...]
  491800   -95943.717   -84384.829    280.69253    20724    220349.97    35.999955    63.701104     -137.005    181.30376    423.02297    23.505622    22.160386    6.5261163    429.54908    5471.5128   -23774.121 
  491900   -95873.942   -84416.212    278.23605    20724    220344.39    83.316027    -11.28643   -74.714619    335.94913    422.58818    23.517413    22.171502    6.7435094    429.33169    5489.8814    -23765.15 
  492000   -95922.221   -84370.425    280.52031    20724    220412.82    147.16911    60.979188    251.42312    129.10502    422.59568    23.520856    22.174748    6.7397605    429.33544    5482.6753   -23807.154 
  492100   -95858.548    -84394.85    278.38096    20724    220338.38   -111.13516   -290.40357    301.69505   -344.69695    421.94224    23.535086    22.188164     7.066481    429.00872    5496.2516   -23786.852 
  492200   -96066.982   -84382.254     283.7484    20724    220466.11      5.13114    222.01956    143.53275   -350.15888    421.86525    23.544055    22.196619     7.104974    428.97023    5478.1975   -23788.301 
  492300   -95910.687   -84358.679    280.52547    20724     220387.8    66.125101   -13.801268    115.40768    96.768892    421.82269     23.54106    22.193796    7.1262568    428.94894    5489.3234   -23826.278 
  492400   -95883.787   -84309.638    281.06312    20724    220479.86   -28.866605     52.52902   -88.271139   -50.857697     422.2441    23.534224    22.187351    6.9155505    429.15965    5481.3202   -23860.836 
  492500   -95960.249   -84386.857    281.04473    20724    220312.97    14.022554   -67.478251    31.563118    77.982794     422.2451    23.525288    22.178926    6.9150479    429.16015    5502.1273   -23814.457 
  492600   -95886.911   -84409.725    278.70852    20724     220611.6    144.88138    121.72474    320.80058   -7.8811845    422.50073    23.534103    22.187237    6.7872341    429.28797    5502.6973   -23788.834 
  492700   -95981.442   -84454.565     279.9152    20724    220311.48    83.843259    180.06176   -44.912998    116.38102    422.17058    23.527284    22.180808    6.9523094    429.12289    5504.7715   -23755.867 
  492800   -95955.999   -84399.343    280.63834    20724    220368.56   -59.396565   -159.69525   -103.26932    84.774868    422.00567    23.534929    22.188015    7.0347647    429.04044    5502.1225   -23800.254 
  492900   -96040.338   -84386.774    282.99162    20724    220397.64   -82.987874   -102.09268    27.339672   -174.21062    421.97094     23.53745    22.190393    7.0521279    429.02307    5488.3267   -23799.784 
  493000   -96001.011   -84445.137    280.61934    20724    220420.03   -2.3517089    86.314077    -121.7909    28.421697    421.98393    23.538283    22.191178    7.0456334    429.02957    5525.9025   -23784.817 
  493100   -95888.967   -84344.237    280.34874    20724    220569.66   -97.405981   -7.0766069   -429.10251    143.96117     422.3232    23.536811     22.18979    6.8759984     429.1992    5511.7478   -23860.133 
  493200   -95954.509   -84321.724    282.48703    20724    220687.46    74.237454   -106.90205   -69.003694    398.61811    422.43111    23.540089     22.19288     6.822046    429.25315    5510.4502   -23889.127 
  493300   -95944.107   -84346.397    281.63528    20724    220465.56   -100.84938   -3.9082122    8.2098361   -306.84975    422.30679    23.531714    22.184984     6.884204      429.191    5508.4372   -23862.346 
  493400   -95916.319   -84376.326     280.2337    20724    220900.02    82.249467    134.87898    124.28554   -12.416115    422.72578    23.543213    22.195825    6.6747099    429.40049    5510.2368   -23830.769 
  493500   -95868.805   -84336.041    280.05817    20724    220894.18    86.311617   -34.570347    162.95048    130.55472    422.79651    23.540932    22.193675    6.6393454    429.43585    5503.5613   -23865.925 
  493600   -95823.354     -84320.2     279.3391    20724    220663.26    123.57273    189.37532   -249.78334    431.12622    422.51556    23.536446    22.189445    6.7798213    429.29538    5507.9631   -23897.278 
  493700   -95822.974   -84351.672    278.56562    20724    220763.91    174.53741    191.41365    97.274381    234.92421    422.39567    23.545154    22.197655    6.8397669    429.23543    5541.0571   -23897.356 
  493800   -95978.372   -84349.285    282.39722    20724    220812.82   -52.882818     159.0344   -369.76111    52.078255    422.64315    23.540866    22.193613    6.7160246    429.35918    5533.7419   -23885.254 
  493900    -95876.37   -84387.352    278.99584    20724    220789.41   -42.809375    8.5913362     79.21488   -216.23434    422.56217    23.541874    22.194563    6.7565156    429.31868    5548.5919    -23865.48 
  494000   -95954.283   -84336.111    282.13217    20724     220953.7    86.927191    293.36559   -114.35977    81.775752    422.86324    23.542245    22.194913    6.6059787    429.46922    5537.0427   -23907.496 
  494100   -95867.416   -84310.091    280.65459    20724    220807.81   -69.275974    132.57747   -317.15698   -23.248416    422.91465    23.533042    22.186236    6.5802736    429.49493     5527.093   -23923.221 
  494200   -95909.363    -84366.95    280.29247    20724     220486.8    26.530375    71.402639   -67.606154     75.79464    422.97894    23.514142    22.168418    6.5481306    429.52707    5534.8238   -23888.934 
  494300   -95977.616   -84357.432    282.18104    20724    220610.56   -12.335451   -79.420254    16.966704    25.447198    422.80555    23.525563    22.179186     6.634826    429.44037    5532.1829   -23893.081 
  494400   -95915.799   -84357.564    280.67667    20724    220758.27   -33.693929    5.4065074    153.71606   -260.20435    423.01483    23.527615     22.18112    6.5301826    429.54502    5528.9554   -23883.354 
  494500   -95984.313   -84371.108    282.01156    20724    220640.49   -9.8484444   -215.80741     221.8121   -35.550019     422.6633    23.531117    22.184422    6.7059521    429.36925    5533.3416   -23881.686 
  494600   -96005.563   -84384.253    282.20836    20724    220589.71     39.67077   -172.82222     129.3887    162.44583    422.38168    23.536252    22.189263    6.8467605    429.22844    5555.8969   -23897.778 
  494700   -95968.825   -84389.523    281.18825    20724    220825.77    44.680418    16.314169    36.851236    80.875851    422.62563    23.542045    22.194724     6.724786    429.35041    5554.8287   -23883.728 
  494800   -95884.263   -84429.273    278.16951    20724     220708.8    79.727217     78.30074     277.1918   -116.31089    422.62667     23.53578    22.188818    6.7242644    429.35094    5569.0093   -23864.856 
  494900   -95900.119   -84427.412    278.59975    20724    221032.47    -33.77934   -214.58669   -109.60012    222.84879    422.90527    23.545272    22.197766    6.5849642    429.49024    5574.5435   -23859.242 
  495000   -95980.868   -84435.501    280.36419    20724    220788.16    62.135391    12.907856   -149.28725    322.78557    423.07537    23.527524    22.181035    6.4999148    429.57529    5557.3462   -23848.316 
  495100   -96068.948   -84404.752     283.2498    20724     220856.2   -60.646466   -89.308185   -209.26802     116.6368    422.98943     23.53354    22.186706    6.5428848    429.53232    5546.9633   -23862.269 
  495200   -95959.114   -84461.119    279.21383    20724    220793.32   -73.992505    4.5741013   -51.230768   -175.32085    422.85926    23.533811    22.186961      6.60797    429.46723    5560.2499   -23822.808 
  495300   -95962.054   -84438.578    279.83259    20724    221075.63    20.961125   -264.64075    462.05455   -134.53043    423.19833    23.539416    22.192245    6.4384345    429.63677    5550.4096   -23831.465 
  495400   -96042.249   -84463.718    281.16953    20724    220844.06   -17.189026   -220.41942     46.78125    122.07109     422.9182    23.534875    22.187965    6.5785023     429.4967    5559.9513   -23823.656 
  495500    -96095.78   -84517.433    281.16506    20724    220940.38   -9.6767688    65.751812   -35.625424   -59.156695    423.18581    23.532562    22.185784    6.4446967     429.6305     5557.371   -23767.079 
  495600   -96052.061   -84533.636    279.70995    20724    221042.36    67.542832    211.31787   -71.407934    62.718557    423.52682    23.528515    22.181968    6.2741911    429.80101    5570.6812   -23765.476 
  495700   -95964.589   -84493.986    278.54864    20724     221314.1     18.88718     13.64116    268.57224   -225.55186     423.4025    23.546429    22.198857    6.3363507    429.73885    5547.9018   -23771.673 
  495800   -96017.603   -84457.163    280.73025    20724    221506.38   -13.110552   -29.683754   -14.313297    4.6653952    423.72828    23.547598    22.199959     6.173462    429.90174    5534.4188   -23788.286 
  495900   -96002.925   -84437.472    280.85196    20724    221214.92    14.892486     -9.45399   -61.665691    115.79714    423.61009    23.535383    22.188444    6.2325538    429.84265    5522.8574   -23808.515 
  496000   -96057.661   -84505.906    280.51932    20724    221177.63   -76.653907    31.279752    -80.65089   -180.59058    423.52076    23.535881    22.188913    6.2772208    429.79798    5545.9603   -23765.259 
  496100    -96081.23   -84450.993    282.42516    20724    221446.37    53.963435    -54.91269    322.22226   -105.41926    424.02678    23.536119    22.189138    6.0242123    430.05099    5554.3928   -23825.703 
  496200   -95961.675   -84415.702    280.37892    20724    221488.56   -14.664406    106.66948   -89.981934   -60.680767    424.19837      23.5336    22.186762    5.9384134    430.13679     5554.876   -23855.756 
  496300   -95994.347     -84402.4    281.49534    20724    221586.11    65.275191   -152.22007    179.68128    168.36436    424.27778    23.536579    22.189571    5.8987122    430.17649    5566.9585   -23884.991 
  496400   -95809.497   -84406.534    276.90611    20724    221432.74    71.403189   -116.80953    265.11468    65.904425    424.28096    23.528344    22.181807    5.8971189    430.17808    5544.2414   -23863.135 
  496500   -95805.123   -84383.011    277.37112    20724    221191.92    8.6472249    131.76659    18.178707   -124.00362    423.91516     23.52569    22.179305    6.0800199    429.99518    5559.3558   -23907.546 
  496600   -96064.582   -84380.019    283.74439    20724    221520.69    2.9666678   -148.14768   -144.56467    301.61235    423.95699    23.542006    22.194687    6.0591059    430.01609    5547.5685    -23890.85 
  496700   -95867.625   -84356.203    279.53989    20724     221472.9    71.534331    139.23729    258.01339   -182.64768    424.12974    23.534672    22.187773    5.9727282    430.10247    5552.3847   -23925.554 
  496800   -95804.747    -84360.41     277.9108    20724    221454.73    17.810087    210.70293   -52.628217   -104.64445    423.88983    23.540365    22.193141    6.0926829    429.98252    5544.7662   -23914.298 
  496900   -95897.018   -84319.093    281.15484    20724    221394.13     106.0625    196.71708   -5.6146033    127.08502    423.66105    23.543498    22.196095    6.2070775    429.86812    5549.8532   -23969.765 
  497000   -95903.378   -84329.641    281.05313    20724    221356.08   -102.91867   -289.53234    167.09347   -186.31716    423.74435    23.539161    22.192006    6.1654254    429.90977    5537.1112   -23938.447 
  497100    -95961.88   -84303.842    283.10027    20724     221558.5    29.122254    175.47273    178.36065   -266.46662    423.74085    23.550019    22.202242    6.1671737    429.90803    5525.4799   -23954.867 
  497200   -95831.324   -84255.965    281.09252    20724    221648.49   -46.606583    46.166052   -146.38551   -39.600295    424.06816    23.545709    22.198179    6.0035181    430.07168    5528.3155   -24000.388 
  497300   -95785.157   -84245.159     280.2338    20724    221145.15   -35.915604    50.934104   -60.402403   -98.278513    423.89139    23.523862    22.177582    6.0919044     429.9833    5537.4795   -24036.511 
  497400   -95767.036   -84245.678    279.78116    20724    221093.53   -10.086178    215.48329    -132.4786   -113.26322    423.93673    23.519859    22.173808    6.0692363    430.00596     5537.299    -24042.17 
  497500   -95774.995   -84285.328    279.01158    20724    221083.34    145.34052    200.36641   -25.875429    261.53058    423.90847    23.520101    22.174036    6.0833638    429.99184    5538.5882    -24014.09 
  497600       -95828   -84260.809    280.89417    20724    221352.17   -5.4093856    118.32917    95.161106   -229.71843    424.13744    23.528043    22.181523    5.9688782    430.10632    5540.6753   -24023.279 
  497700   -95811.727   -84260.815    280.49885    20724    221427.14    73.896619     159.0243    210.57489   -147.90933    424.18152    23.530804    22.184127    5.9468382    430.12836    5547.6653   -24033.077 
  497800   -95868.141   -84346.425    279.78987    20724     221343.2    34.552488   -48.570165   -137.94637      290.174    424.12885    23.527804    22.181299    5.9731738    430.10203    5548.2675    -23951.88 
  497900   -95870.672   -84370.343    279.27052    20724    221583.74    22.701252     130.4109    219.74529   -282.05244    423.83871    23.548641    22.200943    6.1182436    429.95696    5566.1404    -23939.27 
  498000   -95900.654   -84371.562    279.96899    20724    221672.19   -34.423976   -8.2687706   -95.450316   0.44715895    423.80424    23.554299    22.206277      6.13548    429.93972     5564.006   -23930.131 
  498100   -95800.173   -84370.218    277.56156    20724    221544.13    57.927898    1.6452418    6.5422567     165.5962    423.53648    23.554936    22.206878    6.2693606    429.80584    5561.8632    -23940.72 
  498200   -95923.188   -84372.075    280.50374    20724    221319.03   -102.85372    25.886739   -284.94983   -49.498062     423.9374    23.531831    22.185095    6.0688989     430.0063    5553.8575   -23933.377 
  498300    -95844.57   -84381.383    278.36855    20724    221058.85    108.29682     222.6335    226.70688   -124.44993    423.97434    23.516971    22.171085    6.0504294    430.02477    5545.0469    -23933.59 
  498400   -95761.747   -84335.644    277.46803    20724    221460.98     179.1267    287.33346    364.95751   -114.91087    424.01763    23.537149    22.190109    6.0287834    430.04642    5536.7234   -23962.038 
  498500   -95772.477       -84301    278.56988    20724    221623.24    15.149005   -32.764648    149.47688   -71.265219    424.25237    23.539256    22.192095    5.9114131    430.16379    5542.6178   -23993.252 
  498600   -95825.436   -84297.482    279.94135    20724    221537.19    106.01155    198.56116    279.07687   -159.60338     424.3553    23.531831    22.185095      5.85995    430.21525    5523.1329   -23984.472 
  498700   -95764.805   -84314.508    278.05555    20724    221299.56    4.8862633    33.309742    134.89194   -153.54289     424.2043    23.523393     22.17714    5.9354496    430.13975    5547.0134   -23997.354 
  498800   -95845.056    -84312.96    280.04193    20724    221448.52     117.3587    94.008682    92.024606    166.04281    424.35885    23.527023    22.180562    5.8581739    430.21703    5543.8433   -23998.368 
  498900    -95917.22   -84310.765    281.84765    20724    221337.15   -67.709016    60.821154   -64.951471   -198.99673    424.54193    23.516034    22.170202    5.7666355    430.30856    5551.8943   -24002.317 
  499000   -95684.122   -84260.353    277.41136    20724    221314.86    108.05726    64.658841   -54.948831    314.46176    424.88472    23.505362    22.160141    5.5952396    430.47996    5523.7541   -24034.388 
  499100    -95922.71    -84282.46    282.66829    20724    221235.43    76.055418    64.519919   -134.17566    297.82199    425.08655    23.495564    22.150903    5.4943263    430.58087    5539.6387   -24033.634 
  499200   -95862.505   -84262.493    281.69117    20724    221181.64    3.1739576    80.381853    23.536476   -94.396456    424.96425    23.496088    22.151397    5.5554772    430.51972    5538.8972    -24053.92 
  499300   -95892.003   -84252.342    282.65401    20724    221432.77   -53.807117   -81.716991   -118.86857    39.164212    425.32478    23.499457    22.154573     5.375212    430.69999    5547.7833   -24061.429 
  499400   -95841.919   -84288.185    280.56737    20724     221210.1   -14.341627    59.038135   -101.34003  -0.72298257    424.89771    23.499439    22.154556    5.5887429    430.48646    5545.0038   -24033.624 
  499500   -95836.131   -84286.599    280.46533    20724    221235.17     70.96358    192.03709   -216.08819    236.94184    425.13891    23.494103    22.149526    5.4681471    430.60705     5537.789   -24032.991 
  499600   -95980.581   -84315.409    283.27349    20724    221124.36   -105.66378   -136.30462   -56.337772   -124.34895    424.76697      23.4985    22.153671    5.6541157    430.42108    5564.5914   -24027.516 
  499700   -96009.433   -84342.603    283.31376    20724    220938.96   -47.635923         7.45    41.846544   -192.20431    424.59472    23.493411    22.148874    5.7402412    430.33496    5561.9474   -24009.163 
  499800   -95883.358   -84327.762     280.6126    20724    221405.09    16.016394    42.534282    3.2522885    2.2626116    424.67411    23.515982    22.170153    5.7005459    430.37465    5548.4835   -23999.103 
  499900   -95748.955   -84234.836    279.60538    20724    221067.94    28.251362   -199.71667   -108.57168    393.04243    424.48198    23.503388     22.15828    5.7966125    430.27859       5539.7    -24097.49 
  500000   -95771.089   -84344.802     277.4725    20724     221093.3    82.954494    93.113374    138.29086    17.459251    423.94144    23.519716    22.173673    6.0668778    430.00832    5569.9784   -24021.722 
Loop time of 51801.2 on 32 procs for 500000 steps with 20724 atoms

Performance: 1.668 ns/day, 14.389 hours/ns, 9.652 timesteps/s
97.2% CPU use with 32 MPI tasks x no OpenMP threads

MPI task timing breakdown:
Section |  min time  |  avg time  |  max time  |%varavg| %total
---------------------------------------------------------------
Pair    | 6363.6     | 9120.2     | 13075      |2508.4 | 17.61
Bond    | 0.37054    | 0.47235    | 0.56369    |   7.9 |  0.00
Kspace  | 7949.8     | 11919      | 14690      |2206.4 | 23.01
Neigh   | 8383.3     | 10385      | 12305      |1381.8 | 20.05
Comm    | 411.69     | 3836.2     | 7693.4     |4345.4 |  7.41
Output  | 5.7328     | 45.812     | 74.072     | 370.8 |  0.09
Modify  | 12935      | 16456      | 21483      |2442.7 | 31.77
Other   |            | 38.21      |            |       |  0.07

Nlocal:    647.625 ave 698 max 608 min
Histogram: 3 3 3 12 0 2 3 0 3 3
Nghost:    7270.22 ave 7819 max 6741 min
Histogram: 2 4 8 1 3 2 1 3 4 4
Neighs:    238250 ave 270846 max 216214 min
Histogram: 4 6 10 1 0 0 4 1 2 4
FullNghs:  476496 ave 544982 max 432859 min
Histogram: 4 7 9 1 0 2 3 0 4 2

Total # of neighbors = 15247863
Ave neighs/atom = 735.759
Ave special neighs/atom = 2
Neighbor list builds = 500000
Dangerous builds not checked
write_data production.R1
PPPM initialization ...
  extracting TIP4P info from pair style
WARNING: Using 12-bit tables for long-range coulomb (../kspace.cpp:316)
  G vector (1/distance) = 0.345894
  grid = 400 48 48
  stencil order = 5
  estimated absolute RMS force accuracy = 0.000402265
  estimated relative force accuracy = 1.21141e-06
  using double precision FFTs
  3d grid and FFT values/proc = 67260 38400
write_restart restartproduction.R1
PPPM initialization ...
  extracting TIP4P info from pair style
WARNING: Using 12-bit tables for long-range coulomb (../kspace.cpp:316)
  G vector (1/distance) = 0.345894
  grid = 400 48 48
  stencil order = 5
  estimated absolute RMS force accuracy = 0.000402265
  estimated relative force accuracy = 1.21141e-06
  using double precision FFTs
  3d grid and FFT values/proc = 67260 38400
Total wall time: 14:23:21
