LAMMPS (30 Jul 2016)
# Sets up LAMMPS simulation for transient melting of ice: TIP4P/Ice
# Ensure cold thermostats do not move
# Thinbox: 16x1x1
# Defects
# Order param l=2

#### setting MD parameters ####
units real
boundary p p p
atom_style full

# read ice box in restart file
#read_data ice-ih-restart.data
read_restart restart.state
  orthogonal box = (0.508849 0.0274582 0.0258867) to (435.566 23.5037 22.1586)
  32 by 1 by 1 MPI processor grid
  20736 atoms
  13824 bonds
  6912 angles
  2 = max # of 1-2 neighbors
  1 = max # of 1-3 neighbors
  1 = max # of 1-4 neighbors
  2 = max # of special neighbors

#replicate 16 boxes, 16x1x1


#### force field definition ####
pair_style      lj/cut/tip4p/long 2 1 1 1 0.1577 10.0
pair_modify	tail yes

kspace_style	pppm/tip4p 1.0e-6

bond_style	harmonic
angle_style	harmonic
dihedral_style	none
improper_style	none

bond_coeff	1 450.0 0.9572
angle_coeff	1 55.0 104.52


# reset pair coeff
pair_coeff	* * 0.0 0.0

#OO
pair_coeff	2 2 0.21085 3.1668
#OH
pair_coeff	* 1 0.0000 0.0000

neighbor        2.0 bin
neigh_modify    every 1 delay 1 check no

timestep	2.0
fix		constraints all shake 0.000001 20 0 b 1 a 1
  0 = # of size 2 clusters
  0 = # of size 3 clusters
  0 = # of size 4 clusters
  6912 = # of frozen angles

group water type 1 2
20736 atoms in group water

#*********** SIMULATION PARAMETER TO ADJUST ****************
#Box dimensions
variable lx equal lx
variable ly equal ly
variable lz equal lz

### Temperature of the hot and cold regions ####
variable thi equal 375
variable tlo equal 215
variable runpressure equal 0.986923
# Configuration equilibrated in density and temperature

# Define dx here

variable lx equal lx
variable ly equal ly
variable lz equal lz

variable xlo equal xlo
variable xhi equal xhi


variable dx equal 2.0

### ADD IN DEFECTS AT THE CENTRE OF THE HOT THERMOSTAT ###
variable x1 equal ${lx}/4.0
variable x1 equal 435.057502717784/4.0
variable y1 equal ${ly}/2.0
variable y1 equal 23.4762836959156/2.0
variable z1 equal ${lz}/2.0
variable z1 equal 22.1327265779919/2.0

region kill1 sphere ${x1} ${y1} ${z1} 3
region kill1 sphere 108.764375679446 ${y1} ${z1} 3
region kill1 sphere 108.764375679446 11.7381418479578 ${z1} 3
region kill1 sphere 108.764375679446 11.7381418479578 11.0663632889959 3
delete_atoms region kill1 compress no bond yes mol yes
Deleted 15 atoms, new total = 20721
Deleted 10 bonds, new total = 13814
Deleted 5 angles, new total = 6907




variable thip equal ${thi}*2.0/3.0
variable thip equal 375*2.0/3.0
variable tlop equal ${tlo}*2.0/3.0
variable tlop equal 215*2.0/3.0
variable cbl equal ${lx}*3.0/4.0-${dx}
variable cbl equal 435.057502717784*3.0/4.0-${dx}
variable cbl equal 435.057502717784*3.0/4.0-2
variable cbh equal ${lx}*3.0/4.0+${dx}
variable cbh equal 435.057502717784*3.0/4.0+${dx}
variable cbh equal 435.057502717784*3.0/4.0+2
variable hbl equal ${lx}*1.0/4.0-${dx}
variable hbl equal 435.057502717784*1.0/4.0-${dx}
variable hbl equal 435.057502717784*1.0/4.0-2
variable hbh equal ${lx}*1.0/4.0+${dx}
variable hbh equal 435.057502717784*1.0/4.0+${dx}
variable hbh equal 435.057502717784*1.0/4.0+2


#***************************************************
## EQUILIBRATION PERIOD - to reach the steady state ###
#run 0

#reset the timestep to start your production run
reset_timestep 0

# define a group to perform averages
#group s1 type 1
###*** SYSTEM THERMOSTATTING: HOT and COLD regions ***###

fix NVE all nve
fix PRESS all press/berendsen aniso ${runpressure} ${runpressure} 500000 couple yz
fix PRESS all press/berendsen aniso 0.986923 ${runpressure} 500000 couple yz
fix PRESS all press/berendsen aniso 0.986923 0.986923 500000 couple yz


### Apply THERMOSTATS ###

#set up the "hot region" in the middle of the box
region hot block ${hbl} ${hbh} 0 ${ly} 0 ${lz} units box
region hot block 106.764375679446 ${hbh} 0 ${ly} 0 ${lz} units box
region hot block 106.764375679446 110.764375679446 0 ${ly} 0 ${lz} units box
region hot block 106.764375679446 110.764375679446 0 23.4762836959156 0 ${lz} units box
region hot block 106.764375679446 110.764375679446 0 23.4762836959156 0 22.1327265779919 units box


#set up the "cold region" at the left end of the box
region cold block ${cbl} ${cbh} 0 ${ly} 0 ${lz} units box
region cold block 324.293127038338 ${cbh} 0 ${ly} 0 ${lz} units box
region cold block 324.293127038338 328.293127038338 0 ${ly} 0 ${lz} units box
region cold block 324.293127038338 328.293127038338 0 23.4762836959156 0 ${lz} units box
region cold block 324.293127038338 328.293127038338 0 23.4762836959156 0 22.1327265779919 units box

#set up the "cold region" at the right end of the box
#region cold2 block ${h2bl} ${xhi} 0 ${ly} 0 ${lz} units box


#Cold regions  unification
#region cold union 2 cold1 cold2 units box

#Create group of cold molecules
####group cool_ice region cold
####group cool_ice include molecule

####compute cold_temp cool_ice temp
####fix cold_rescale water temp/rescale 1 ${tlo} ${tlo} 0.0001 1.0
####fix_modify cold_rescale temp cold_temp

#this calculates the temperature using only the atoms in the "hot region"
#compute hot_temp all temp/region hot

# calculate the temperature using only WATER in the "hot region"
compute hot_temp water temp/region hot

#this calculates the temperature using only WATER in the "cold region"
compute cold_temp water temp/region cold


#set up a basic velocity rescale for the hot region WATER with thip
fix hot_rescale water temp/rescale 1 ${thip} ${thip} 1.0 1.0
fix hot_rescale water temp/rescale 1 250 ${thip} 1.0 1.0
fix hot_rescale water temp/rescale 1 250 250 1.0 1.0
#change the thermostat to only act on the "hot region"
#this is done by passing it the "hot temp" compute that we defined above
fix_modify hot_rescale temp hot_temp

#set up a basic velocity rescale for the cold region
fix cold_rescale water temp/rescale 1 ${tlop} ${tlop} 1.0 1.0
fix cold_rescale water temp/rescale 1 143.333333333333 ${tlop} 1.0 1.0
fix cold_rescale water temp/rescale 1 143.333333333333 143.333333333333 1.0 1.0
#change the thermostat to only act on the "cold region"
#this is done by passing it the "cold temp" compute that we defined above
fix_modify cold_rescale temp cold_temp

### Ensure MOMENTUM CONSERVATION ###

#ensure that linear momentum is conserved despite the "thermostatting" by velocity rescaling
fix cons_mom all momentum 1 linear 1 1 1


thermo 100
thermo_style custom step pe etotal temp atoms vol press pxx pyy pzz lx ly lz xlo xhi f_cold_rescale f_hot_rescale

group ox type 2
6907 atoms in group ox
group hy type 1
13814 atoms in group hy
compute KE all ke/atom
variable TEMP atom c_KE*4186.8/(1.3806488*6.02214129)

compute cc1 all chunk/atom bin/1d x center 2 units box
#fix TPROFILE all ave/chunk 1 500 500 cc1 v_TEMP density/number file temp.dat
fix TPROFILEox ox ave/chunk 1 500 500 cc1 v_TEMP density/number file temp-ox.dat
fix TPROFILEhy hy ave/chunk 1 500 500 cc1 v_TEMP density/number file temp-hy.dat

compute orderparam ox orientorder/atom degrees 1 2 nnn 4 cutoff 3.5
compute cc2 ox chunk/atom bin/1d x center 2 units box
#fix ORDERPARAM all ave/chunk 1 500 500 cc2 c_orderparam[1] file order-param.dat
fix ORDERPARAM all ave/chunk 1 500 500 cc2 c_orderparam[1] file order-param.dat

restart 50000 config.restart

run 500000
PPPM initialization ...
  extracting TIP4P info from pair style
WARNING: Using 12-bit tables for long-range coulomb (../kspace.cpp:316)
  G vector (1/distance) = 0.345622
  grid = 405 48 48
  stencil order = 5
  estimated absolute RMS force accuracy = 0.000405533
  estimated relative force accuracy = 1.22125e-06
  using double precision FFTs
  3d grid and FFT values/proc = 67260 38880
Neighbor list info ...
  2 neighbor list requests
  update every 1 steps, delay 1 steps, check no
  max neighbors/atom: 2000, page size: 100000
  master list distance cutoff = 12.3154
  ghost atom cutoff = 12.3154
  binsize = 6.1577 -> bins = 71 4 4
Memory usage per processor = 12.7749 Mbytes
Step PotEng TotEng Temp Atoms Volume Press Pxx Pyy Pzz Lx Ly Lz Xlo Xhi cold_res hot_resc 
       0    -103867.8   -95019.948    214.88965    20721    226053.34    156.92127    251.56643    147.92896    71.268426     435.0575    23.476284    22.132727   0.50884864    435.56635            0            0 
     100   -103657.25   -94737.782    216.62899    20721    226186.01   -83.693467   -282.71006    9.7561728    21.873483    434.83484    23.489183    22.144888   0.62018089    435.45502    6.9012566   -279.81168 
     200   -103691.15   -94726.628    217.72316    20721    226277.52    62.085826    128.78381    89.107015   -31.633347    435.08204    23.487259    22.143074    0.4965791    435.57862    2.0772977   -290.32425 
     300   -103582.44   -94672.134    216.40659    20721    226125.86    55.742359      75.9707    42.777007    48.479369     435.1643    23.477167     22.13356   0.45544957    435.61975    15.769882   -363.15387 
     400   -103667.33   -94667.267     218.5865    20721    226271.91    28.404722   -29.450827    283.45084   -168.78585    435.20041    23.483774    22.139788   0.43739647     435.6378    37.606141   -388.00941 
     500   -103593.65   -94656.749    217.05238    20721    226133.06    52.215682    297.36686   -132.02518   -8.6946242    435.15285    23.477851    22.134204   0.46117595    435.61402      48.4913   -414.18366 
     600   -103628.73     -94560.9    220.23227    20721    226310.91   -60.913397   -92.413441     83.82119   -174.14794       435.06    23.489587    22.145268   0.50759966     435.5676    36.192275   -488.35395 
     700   -103533.68   -94531.758    218.63158    20721    226350.51    81.438963    57.744942    144.55538     42.01657    435.23805    23.486836    22.142675     0.418576    435.65662    37.189463   -524.71262 
     800   -103509.57   -94494.532    218.95016    20721    226251.62   -9.9782117    -144.7038    105.36301    9.4061545    435.00719    23.487935    22.143711   0.53400527    435.54119    16.748198   -539.52997 
     900   -103428.89   -94395.326    219.40011    20721    226130.26    103.65199    263.49996   -154.51062    201.96661    435.06348    23.480116     22.13634   0.50586163    435.56934    15.100399   -644.70393 
    1000   -103442.31   -94379.755     220.1043    20721    226258.92   -33.247739   -5.5084091   -274.20791    179.97311    435.23847    23.482073    22.138184    0.4183625    435.65684    28.022931   -666.24226 
    1100   -103410.42   -94353.433    219.96893    20721    226214.01    11.777377   -91.298683    190.25574   -63.624929     435.0313    23.485332    22.141257   0.52195205    435.55325     32.27662   -700.42417 
    1200   -103416.62    -94311.39    221.14064    20721    226327.92    -41.20817   -5.2724286   0.92187845   -119.27396    434.96632    23.492999    22.148485   0.55443787    435.52076    25.514575    -732.8952 
    1300   -103459.35   -94291.701    222.65659    20721    226245.64    12.588451    96.050778   -107.72065    49.435223    434.91467    23.490124    22.145774   0.58026625    435.49493    51.460354   -784.23936 
    1400   -103335.75   -94313.905    219.11541    20721    226293.29    4.7904059    145.05841    32.093232   -162.78042    435.12775    23.486844    22.142682    0.4737226    435.60148    35.013354   -744.03404 
    1500   -103393.17   -94282.458    221.27384    20721    226217.36    15.249902    43.886168    113.73013   -111.86659    435.04575    23.485116    22.141054   0.51472481    435.56048     47.19591   -791.93343 
    1600   -103442.65   -94266.784    222.85614    20721    226370.96   -21.312703    85.309805    75.998263   -225.24618    435.25152    23.487534    22.143333   0.41183992    435.66336    31.409468   -788.68535 
    1700   -103389.24   -94218.507    222.73159    20721    226379.03   -38.699378   -102.62618    144.22474   -157.69669    435.10252    23.491974    22.147519   0.48634093    435.58886    26.416067   -830.63458 
    1800   -103330.35   -94172.143    222.42734    20721    226401.03    40.008433   -97.347919   -137.55243    354.92565    434.88131     23.49909    22.154228   0.59694363    435.47826    19.147457    -873.5057 
    1900   -103335.63   -94134.636    223.46639    20721    226382.05   -55.097089    147.27679   -131.67073   -180.89733    435.14274    23.491045    22.146643   0.46622891    435.60897    13.382661   -901.40407 
    2000   -103301.95   -94114.432    223.13913    20721    226321.21   -49.655247    102.54793   -204.03573   -47.477939    435.29499     23.48378    22.139794   0.39010283     435.6851    10.794142   -923.63927 
    2100   -103241.97   -94076.606    222.60107    20721    226339.39     28.71921    1.4993814   -3.1736086    87.831857    435.09941    23.490001    22.145659   0.48789726     435.5873   -12.776327   -941.83771 
    2200   -103283.44   -94106.254    222.88831    20721    226371.81    39.243889    229.53353   -38.982356   -72.819511    435.25263    23.487548    22.143346   0.41128655    435.66391    12.978684   -938.23257 
    2300   -103251.18   -94061.038    223.20294    20721    226390.64   -52.590973   -110.57041   -56.372733     9.170227     435.0823    23.493123    22.148602   0.49645079    435.57875   -15.608159   -951.21032 
    2400   -103265.91   -94048.094    223.87506    20721    226605.91     45.75632    59.765377    73.370422    4.1331607    435.28456    23.498828    22.153981   0.39532204    435.67988    5.5975356   -985.34756 
    2500   -103186.56    -94014.65    222.76018    20721    226471.95   0.11856445    88.561174    118.97621   -207.18169    435.35229    23.490054    22.145709    0.3614567    435.71374   -5.4108835   -1008.3535 
    2600   -103193.94   -93995.099    223.41431    20721    226440.66   -52.961123    -70.72573   -22.354918   -65.802721     435.3382    23.488811    22.144537     0.368498     435.7067   -11.233963   -1022.8441 
    2700   -103242.17   -93952.691    225.61551    20721    226456.21   -29.284201    125.57703   -114.90574   -98.523898    435.34498    23.489434    22.145125   0.36511123    435.71009   -16.115993   -1062.4101 
    2800   -103167.99   -93943.885    224.02775    20721    226552.31    61.018096   -21.576952    177.96079    26.670448    435.44879    23.491617    22.147183   0.31320534    435.76199   -5.4161556    -1083.408 
    2900   -103222.63   -93939.945    225.45051    20721    226555.02    2.5668075   -46.219927   -55.515589    109.43594    435.24589    23.497233    22.152477   0.41465694    435.66054   -13.757461   -1076.8496 
    3000   -103169.03   -93939.381    224.16238    20721    226649.56    52.145036    46.252314    144.98947   -34.806676    435.56475    23.493531    22.148987   0.25522425    435.81998   -16.531864   -1076.5955 
    3100   -103165.26   -93937.952    224.10566    20721    226672.76     65.80855   -80.728517    52.585693    225.56848    435.65998    23.492165    22.147699   0.20761019    435.86759    5.0001522   -1100.0229 
    3200   -103163.19   -93933.588    224.16132    20721     226676.6    1.8654999    215.55222   -69.126331   -140.82939    435.32813    23.501317    22.156327   0.37353402    435.70167    -1.740979   -1096.5045 
    3300   -103214.76   -93921.349    225.71101    20721    226594.12    9.4573042    96.269661   -67.759003  -0.13874536    435.47699    23.493024    22.148509   0.29910265     435.7761   -27.740964   -1084.6869 
    3400   -103157.77   -93898.893    224.87242    20721     226541.1   -3.7486264   -25.697045   -187.55898    202.01015    435.56231    23.487975    22.143749   0.25644488    435.81876   -8.8344027    -1129.786 
    3500    -103169.1   -93853.473    226.25072    20721       226485    44.832269   -4.5570055    43.667587    95.386225    435.27801    23.492735    22.148236   0.39859287    435.67661    -5.282612   -1182.3681 
    3600   -103259.37   -93868.038    228.08919    20721    226690.59   -25.385749    14.296004   -192.46709    102.01383    435.55791    23.495841    22.151165   0.25864287    435.81656    2.9206699     -1170.81 
    3700   -103121.67   -93850.107    225.18052    20721    226573.18    13.058949   -140.67238    149.52848    30.320751    435.27795    23.497309    22.152549    0.3986256    435.67657   -11.600618   -1178.8429 
    3800   -103103.58   -93858.068    224.54763    20721    226663.88    28.112992   -63.300143    -41.66747    189.30659    435.30172     23.50137    22.156377   0.38674011    435.68846    26.603689   -1207.4827 
    3900   -103144.87   -93893.549    224.68882    20721    226598.95    109.75068    62.843009    63.753425     202.6556     435.3841    23.495781    22.151108   0.34554845    435.72965    45.170623   -1198.0396 
    4000   -103105.19   -93860.859    224.51901    20721    226468.52   -21.629651   -168.44711   -121.95419    225.51235    435.35641    23.489765    22.145436   0.35939535     435.7158     54.93837   -1236.6685 
    4100   -103156.78   -93848.287    226.07739    20721    226512.64   -81.119867   -135.32495   -3.6001922   -104.43446    435.22361    23.495636    22.150972   0.42579335    435.64941    60.939838   -1253.8052 
    4200    -103115.9   -93817.476    225.83275    20721    226589.16    6.6525573   -33.317238   -234.54944    287.82435    435.31218    23.497214    22.152459   0.38151238    435.69369     66.94724     -1292.83 
    4300   -103105.07    -93795.67    226.09948    20721     226703.5   -86.767594     134.7025   -35.270206   -359.73508    435.27997    23.504011    22.158867   0.39761353    435.67759    60.306589    -1301.871 
    4400    -103038.1   -93765.396     225.2081    20721    226582.75    70.088137   -31.049657    280.93509   -39.621022    435.45206    23.493107    22.148587   0.31156776    435.76363    29.469535   -1314.3312 
    4500   -103018.28   -93717.485    225.89043    20721    226604.39   -75.921319    4.4085212   -182.92058     -49.2519    435.12238    23.503128    22.158034   0.47641186    435.59879    38.402871   -1363.1296 
    4600   -103114.84   -93740.656    227.67276    20721     226669.6   -17.209049    116.96495    -28.42237   -140.16973    435.33838    23.500677    22.155724   0.36841157    435.70679    51.372062   -1356.3524 
    4700   -103113.85   -93731.471    227.87194    20721    226620.65    -34.50691    74.480225   -54.590104   -123.41085    435.46465    23.494733     22.15012   0.30527662    435.76992    62.918146    -1377.824 
    4800   -103065.95   -93722.047    226.93738    20721     226591.1   -50.705559   -77.793459    38.215381    -112.5386    435.51478    23.491849    22.147401   0.28020958    435.79499    40.340402   -1365.3103 
    4900   -102935.06   -93685.895    224.63651    20721    226599.24    96.675387    195.57074   -174.18124    268.63666    435.39024     23.49563    22.150966    0.3424796    435.73272    62.849811   -1431.0205 
    5000   -103004.53   -93743.964     224.9134    20721    226717.52    38.777114    50.805875   -107.94618    173.47165      435.561    23.497154    22.152402   0.25710162     435.8181    70.594169   -1377.5055 
    5100   -103087.38   -93692.141    228.18411    20721    226626.73    32.783783    60.331934    139.88852   -101.86911    435.38814    23.497112    22.152363   0.34352815    435.73167      66.3043   -1428.0914 
    5200   -103057.26   -93662.328    228.17662    20721    226502.88   -46.588452    40.016207   -28.840636   -150.94093    435.39968    23.490379    22.146015   0.33775935    435.73744    54.024461   -1446.3315 
    5300    -103028.5   -93678.033    227.09678    20721    226501.83    56.887073    -183.0902     200.3023    153.44912    435.27707    23.493633    22.149083   0.39906697    435.67613    56.420307   -1437.6485 
    5400   -102965.12   -93629.587    226.73407    20721    226576.81   -6.0217408   -66.198584    36.659691     11.47367    435.23969     23.49853      22.1537   0.41775356    435.65745    77.416488   -1502.7915 
    5500   -103008.21    -93635.39    227.63978    20721    226423.86    93.134481    -47.84929    28.312069    298.94066    435.28486    23.489379    22.145072   0.39517075    435.68003    54.264153   -1484.9652 
    5600   -102943.63   -93545.126    228.26357    20721    226576.46   -67.367514   -194.19728    -123.2436    115.33834    435.30594    23.496724    22.151997   0.38462759    435.69057    31.688456   -1541.6224 
    5700   -102998.57    -93588.46    228.54536    20721    226566.46   0.52620157   -76.939103   -94.379772    172.89748    435.33584    23.495399    22.150748   0.36968029    435.70552    41.212541   -1512.9315 
    5800   -102975.96   -93560.013     228.6872    20721    226547.98   -6.5956177   -82.517902    132.06483   -69.333782    435.38184    23.493199    22.148674   0.34668034    435.72852    40.700209   -1540.3023 
    5900    -102951.4   -93550.395     228.3242    20721    226507.69    29.120277   -17.989743    254.35023   -148.99965    435.30229    23.493256    22.148727   0.38645316    435.68875    55.690879   -1569.6275 
    6000   -102974.67   -93565.392    228.52509    20721       226617   -53.804789    33.075593    45.487111   -239.97707    435.50236    23.493526    22.148982   0.28641768    435.78878    55.249749   -1547.8156 
    6100   -103019.08   -93552.727    229.91127    20721    226620.75    -19.06996   -83.969629   -7.7448874    34.504638    435.40087    23.496458    22.151747   0.33716361    435.73804    34.712291   -1543.5041 
    6200   -102970.41   -93521.684    229.48322    20721    226466.56   -29.455462   -100.94354    264.25414   -251.67698    435.37092    23.489272    22.144971   0.35214009    435.72306    45.263503   -1588.7656 
    6300   -102871.27   -93487.602    227.90304    20721    226549.86    22.037601    43.769088    35.750912   -13.407196    435.41094    23.492512    22.148026   0.33212954    435.74307    49.529816   -1627.3325 
    6400   -102813.25   -93461.813    227.12044    20721    226526.78    4.7325467    89.684721    4.5486498   -80.035731    435.46149    23.489951    22.145612   0.30685266    435.76835    23.664592   -1629.2441 
    6500   -102857.58   -93478.357    227.79511    20721    226603.05   -16.170339    44.293617    10.865482   -103.67012    435.26386    23.499238    22.154368   0.40567063    435.66953    38.753073   -1624.9027 
    6600   -102962.92   -93475.036    230.43434    20721    226448.02   -88.962914   -194.73217   -301.72673    229.57016    435.20533    23.492778    22.148277   0.43493298    435.64027    30.562902   -1621.9415 
    6700   -102917.79   -93465.135    229.57875    20721    226671.25    45.129035    49.592617    9.2723405    76.522149    435.17526    23.505166    22.159956    0.4499689    435.62523    18.788579   -1619.8537 
    6800   -102956.32   -93428.547    231.40308    20721    226525.59   -83.541342   -162.54239   -174.79321    86.711584    435.22547    23.496258    22.151557   0.42486354    435.65034    50.479243   -1688.3109 
    6900   -102859.66   -93430.394    229.01063    20721    226436.59    35.378258    185.46579    92.297122   -171.62813     435.3356     23.48867    22.144404    0.3698014     435.7054    39.364081   -1684.1926 
    7000   -102820.88   -93407.014    228.63652    20721    226474.52    33.014228   -196.09124    171.67772     123.4562      435.149    23.495673    22.151006   0.46310061     435.6121    46.654384   -1714.8432 
    7100   -102864.35   -93428.102    229.18008    20721    226482.17    27.012903    32.603689    -13.00838    61.443399    435.17858    23.495271    22.150628   0.44830769    435.62689     19.49773   -1667.5898 
    7200    -102879.2   -93383.283    230.62927    20721    226554.07    -8.055625    137.05226   -123.55473   -37.664403    435.26578    23.496647    22.151924   0.40470957    435.67049    9.5226169   -1701.0892 
    7300   -102903.34   -93421.903     230.2776    20721    226521.43   -34.079205    16.964782    82.443208   -201.64561    435.21315    23.496375    22.151668   0.43102504    435.64417    30.454424   -1683.3394 
    7400    -102883.4   -93403.768    230.23395    20721    226449.39   -32.216338    33.570542   -81.155576    -49.06398    434.99918    23.498415    22.153591   0.53800799    435.53719    21.624806   -1695.4443 
    7500   -102922.57   -93424.668    230.67748    20721    226575.94    38.883633    246.28182   -85.560261   -44.070664     435.3342    23.495934    22.151252   0.37050072     435.7047    35.048966   -1689.1264 
    7600    -102732.6   -93399.888    226.66556    20721    226429.24    31.027919   -10.193158    -76.41432    179.69123    435.16213     23.49297    22.148458   0.45653531    435.61866     56.70301   -1738.3692 
    7700   -102719.48   -93343.565    227.71474    20721    226617.29    25.120042    23.017697     77.92384   -25.581413    435.43685    23.495308    22.150662   0.31917451    435.75603    45.560576   -1779.5848 
    7800   -102911.72   -93338.079    232.51708    20721    226627.41    84.858665    126.42421    46.075548     82.07624    435.22774    23.501477    22.156478   0.42373018    435.65147     59.26015   -1804.6361 
    7900   -102818.05   -93312.613    230.86047    20721    226775.05   -39.311059    36.919573    120.07541   -274.92816    435.45477    23.503001    22.157915   0.31021472    435.76499    55.227779   -1817.7747 
    8000   -102900.12   -93338.564    232.22358    20721    226653.33   -31.444062   -80.330591    86.610554   -100.61215      435.414    23.497793    22.153005   0.33059786     435.7446    52.601898   -1793.8852 
    8100   -102795.43   -93296.852    230.69387    20721    226609.41    20.712922   -43.274072    151.73907   -46.326229    435.05728    23.505147    22.159938   0.50895758    435.56624    29.623732    -1815.092 
    8200   -102789.58   -93263.431    231.36363    20721    226595.58    32.217821    89.970871    52.145065   -45.462474    435.44829    23.493874    22.149311   0.31345717    435.76174    27.309652     -1849.33 
    8300   -102810.87   -93286.143    231.32912    20721    226852.39    10.033315     95.30949   -295.28388    230.07434    435.55585    23.504281    22.159121    0.2596739    435.81553    62.162603   -1853.6548 
    8400   -102758.33   -93300.395    229.70683    20721    226748.06    42.250346   -156.73458   -32.930493    316.41612    435.46306    23.501379    22.156385   0.30606863    435.76913    36.267137   -1819.4899 
    8500   -102791.77   -93275.885    231.11433    20721    226875.46    67.887818    169.25071    163.34674   -128.93399    435.31025    23.512106    22.166499   0.38247569    435.69272    36.149907   -1841.1792 
    8600   -102776.46   -93238.177    231.65822    20721    226652.84   -16.099769    197.20511   -186.32257    -59.18184    435.41676    23.497693    22.152911   0.32922071    435.74598    38.387753   -1886.2057 
    8700   -102745.29     -93204.2    231.72657    20721     226600.3   -11.960953   -67.677514    26.453151    5.3415048    435.21107    23.500521    22.155577   0.43206385    435.64314    18.048719   -1900.9614 
    8800   -102695.14   -93199.314    230.62718    20721    226921.02    69.317054    43.388245     69.60819    94.954728    435.51782    23.508862    22.163441   0.27869016    435.79651    17.937762   -1900.8155 
    8900   -102696.79   -93146.047    231.96095    20721    226630.72      4.48402    64.348407    108.53049   -159.42683    435.41945    23.496474    22.151762    0.3278772    435.74732   0.25361577   -1942.6835 
    9000   -102710.87   -93131.927    232.64573    20721    226893.13   -4.0117956   -7.6193368    39.257157   -43.673207     435.6376    23.504185    22.159031   0.21879853     435.8564    21.575585   -1971.1673 
    9100   -102677.08    -93121.17    232.08647    20721     226718.6   -21.651082    -3.041525   -44.803233   -17.108489    435.43094    23.500719    22.155763    0.3221321    435.75307    22.656192    -1987.869 
    9200   -102588.93   -93076.866    231.02156    20721    226747.68   -29.420933   -93.449689     114.6925   -109.50561    435.50613    23.500197    22.155272   0.28453449    435.79067    11.261842   -2019.6168 
    9300   -102716.86   -93081.416    234.01814    20721    226802.45   -13.196017   -83.644614    183.03305   -138.97648    435.59632    23.500602    22.155653   0.23943869    435.83576    8.5486807   -2014.1957 
    9400    -102743.9   -93147.033    233.08118    20721    226713.85    13.383561    103.48573   -170.72787    107.39282    435.32326    23.503379    22.158271   0.37596765    435.69923    24.047035   -1967.8684 
    9500   -102706.08   -93122.484    232.75879    20721    226590.76   -54.830346    139.75795   -196.54103   -107.70795    435.50635    23.492058    22.147598   0.28442295    435.79078    23.488019   -1993.6225 
    9600    -102695.1   -93077.361    233.58818    20721    226626.04    32.140393    39.944325     5.618415    50.858439    435.46265    23.495066    22.150434   0.30627731    435.76892    24.345903   -2042.7804 
    9700   -102642.21   -93082.665    232.17466    20721     226563.5   -39.047187    75.857029   -149.79755   -43.201036    435.58791    23.488446    22.144192   0.24364432    435.83156    30.094419    -2042.892 
    9800   -102697.19   -93075.221    233.69078    20721    226629.18   -21.391751   -179.92988   -220.36465    336.11927     435.3356    23.498657    22.153819   0.36979905     435.7054    18.572579   -2040.1336 
    9900    -102743.7   -93078.352    234.74425    20721     226608.2   -20.688044   -183.20699   -87.696178    208.83903    435.04374     23.50545    22.160223   0.51573178    435.55947    26.987699    -2046.564 
   10000   -102640.43   -93056.262    232.77268    20721     226677.9   -51.557126   -23.129312    265.71665   -397.25872    435.16804    23.505707    22.160466   0.45358155    435.62162    26.799293   -2064.3926 
   10100    -102655.2   -93011.122     234.2278    20721     226613.9   -6.3106349    34.781924   -76.445007    22.731178     435.1824       23.502    22.156971   0.44639862     435.6288   -1.5562729   -2086.2621 
   10200   -102630.48   -92983.925    234.28789    20721    226811.52   -66.223878   -16.527296   -260.46922    78.324879    435.37171    23.507133    22.161811   0.35174406    435.72346   -0.2144828   -2108.7254 
   10300   -102569.79   -92960.879     233.3736    20721    226584.38    4.6856774   -60.886602    42.088269    32.855365    435.14163     23.50157    22.156566   0.46678568    435.60841    -13.57218     -2128.46 
   10400   -102625.91   -92947.859    235.05297    20721    226766.14    5.9247125    110.88608   -151.47813    58.366188    435.34686    23.505452    22.160226   0.36416958    435.71103   -1.1766156   -2150.6411 
   10500   -102558.89   -92903.956    234.49147    20721    226685.68   -25.862276   -61.100736   -120.02334    103.53725    435.20046    23.505234     22.16002   0.43736756    435.63783   -22.480993   -2174.9483 
   10600   -102481.85   -92894.943    232.83928    20721    226783.43    142.74263    69.128799    231.49293    127.60616    435.32854    23.506843    22.161537   0.37333225    435.70187   -32.335808   -2180.1683 
   10700   -102542.28   -92932.254     233.4008    20721    226846.46   -39.384846   -72.194449    108.91538   -154.87547    435.27744    23.511489    22.165917    0.3988803    435.67632   -16.012276   -2148.5443 
   10800   -102537.32   -92918.309    233.61891    20721    226799.84    45.263471   -24.617515    144.96515    15.442778     435.2455    23.509936    22.164453   0.41484898    435.66035    2.1364611   -2188.5035 
   10900   -102540.29   -92905.314    234.00673    20721    226691.98    20.316238    -14.32997    16.634445    58.644238    435.23248    23.504696    22.159513   0.42136008    435.65384   -5.9249624   -2194.0841 
   11000   -102523.28   -92914.667     233.3665    20721    226536.41    1.2475427   -88.796643    85.639988    6.8992837    434.97883     23.50348    22.158366   0.54818736    435.52701    7.7000285   -2203.9829 
   11100   -102611.51   -92884.065    236.25261    20721       226893    26.580827   -115.84841    -86.53538    282.12627    435.23817    23.514962    22.169191   0.41851417    435.65669     3.687274   -2223.0137 
   11200   -102567.51    -92923.56    234.22458    20721    226872.67    41.232401    105.14653      92.6913    -74.14063    435.32565    23.511546    22.165971   0.37477715    435.70042   -8.3336631   -2172.9434 
   11300   -102585.19    -92894.99    235.34786    20721    226916.95   -117.29409   -112.89649   -105.31952   -133.66627    435.29255    23.514734    22.168976   0.39132644    435.68387    5.2453837   -2207.1057 
   11400   -102559.95   -92921.171    234.09911    20721    226749.94     75.46008    217.80045   -46.929775    55.509565    435.01651    23.513536    22.167847   0.52934532    435.54585    15.714608   -2205.5331 
   11500   -102511.45   -92846.744    234.72869    20721     226811.3    32.952945    22.804282    137.50854   -61.453989    435.25476     23.51028    22.164777   0.41022134    435.66498   -26.937966   -2235.3301 
   11600   -102484.75   -92821.502     234.6933    20721     226802.7   -71.513752    35.977377      -95.178   -155.34063    435.22035    23.510763    22.165233   0.42742686    435.64777   -11.955796   -2269.0603 
   11700   -102476.54   -92837.562    234.10389    20721    226659.28   -96.610426   -49.936112   -308.67257    68.777409    434.83862    23.513642    22.167947   0.61829018    435.45691   -3.7477538   -2264.9588 
   11800    -102582.1   -92779.323    238.08221    20721    226826.98    -55.94863   -125.08007    -78.18832    35.422498    435.12864    23.514499    22.168755   0.47327751    435.60192   -9.4580473   -2318.9943 
   11900   -102483.27   -92741.416    236.60253    20721    226973.08    16.736185   -48.859954   -182.39223    281.46074    435.19862     23.52018     22.17411   0.43829233    435.63691   -24.998139   -2343.4686 
   12000   -102406.09   -92704.979    235.61286    20721    226624.22    1.3148987   -130.36081    380.88415   -246.57864     435.2124    23.501725    22.156712   0.43139751     435.6438   -11.913351   -2401.1911 
   12100   -102453.61   -92714.255    236.54172    20721    226843.79    99.174078    163.99738    132.21601     1.308848    435.58405    23.503075    22.157984   0.24557351    435.82963   -1.4648353    -2403.677 
   12200   -102414.34   -92714.847    235.57372    20721    226758.27    44.612052   -89.088715    199.67695    23.247919    435.22524    23.508328    22.162937    0.4249781    435.65022    2.8028222   -2406.9531 
   12300   -102367.96   -92661.364    235.74613    20721    226756.11     57.79666    -81.68782    255.30346  -0.22566352    435.04429    23.513105     22.16744   0.51545489    435.55975   -10.947175   -2448.6946 
   12400   -102379.42     -92632.4      236.728    20721    226770.46     74.50447    166.75136    -188.0482    244.81026    435.16253    23.510654     22.16513   0.45633739    435.61886    -8.249335   -2481.0253 
   12500   -102531.62   -92670.897     239.4896    20721    226622.42   -109.11851   -132.76429   -223.67185    29.080612    435.12973    23.503864    22.158729   0.47273453    435.60247   -7.0354729   -2440.4501 
   12600    -102463.8   -92680.201    237.61645    20721    226728.95   -41.870542   -74.081826     81.59261   -133.12241    435.07566    23.510849    22.165314   0.49977136    435.57543   -4.5843592   -2433.9542 
   12700   -102402.54   -92597.281    238.14239    20721    226626.25   -26.315892   -65.287923    65.588308   -79.248062    435.15753    23.503312    22.158208   0.45883503    435.61636    -23.55699   -2504.3297 
   12800   -102466.01    -92616.18    239.22495    20721    226610.85   -83.123232   -62.638194    183.82983   -370.56133    435.22942    23.500572    22.155625   0.42288765    435.65231   -17.920026   -2490.7698 
   12900   -102351.31   -92632.961    236.03172    20721    226535.02    36.401611   -48.308941   -10.282848    167.79662    434.93795    23.504512     22.15934   0.56862601    435.50657   -11.977665   -2487.4194 
   13000   -102345.66   -92635.931    235.82213    20721    226242.62   -35.483692     43.84794     -179.615     29.31598    434.65667    23.496937    22.152198   0.70926506    435.36593   -16.801491   -2485.1399 
   13100   -102378.58   -92624.273    236.90484    20721     226596.9    12.793242    57.633011    130.81084   -150.06412    434.88514    23.509149    22.163711   0.59503188    435.48017    6.3149873   -2512.6974 
   13200   -102364.78   -92574.833    237.77052    20721    226465.01     39.41711    47.270616    15.566845    55.413869    434.83877     23.50356    22.158441   0.61821536    435.45698   -17.800252    -2546.027 
   13300   -102300.53   -92518.725     237.5727    20721    226420.61   -49.444383    102.36618   -197.61318   -53.086154    434.77047    23.503101    22.158009    0.6523641    435.42284   -4.2722551   -2612.2613 
   13400   -102330.16   -92490.336    238.98199    20721    226791.06  -0.57541614   -189.78543    310.57685   -122.51767    434.86597    23.519737    22.173693   0.60461738    435.47058   -10.441678   -2629.1563 
   13500   -102271.07   -92476.145    237.89145    20721    226551.89     32.36229   -76.391028   -4.2665086    177.74441    434.79193    23.509334    22.163885   0.64163693    435.43356    21.088131   -2683.9556 
   13600   -102225.52   -92465.184     237.0514    20721    226609.56    34.964324    237.65614   -70.288632   -62.474539    434.95827    23.507829    22.162467    0.5584665    435.51673    -5.842945   -2665.7347 
   13700   -102279.43   -92463.448    238.40293    20721    226480.14    28.077441    40.180375   0.29516283    43.756784    434.72499     23.50742    22.162081   0.67510304     435.4001     3.765855    -2682.857 
   13800   -102144.36   -92464.579    235.09495    20721    226373.02    34.935391    13.331855    39.041597    52.432719    434.73698    23.501536    22.156534   0.66911051    435.40609   -2.1824843   -2680.0325 
   13900   -102249.35   -92413.591    238.88319    20721    226509.48   -15.226662   -22.046563   -158.56029    134.92687    434.76568    23.507843     22.16248   0.65476184    435.42044  -0.77060852   -2727.2846 
   14000   -102330.51   -92418.436     240.7367    20721    226298.71   -32.431682   -49.368414   -121.65013    73.723497    434.66805    23.499542    22.154654    0.7035754    435.37162    16.789885   -2746.1373 
   14100   -102128.92   -92399.989    236.28855    20721    226438.68    52.884752   -104.48437    298.87273   -35.734103    434.59105     23.50889    22.163467   0.74207636    435.33312    1.6404867    -2749.162 
   14200   -102210.58   -92385.467     238.6246    20721    226429.67  0.072603511     71.10116    115.41523   -186.29858    434.76948    23.503599    22.158478   0.65285913    435.42234    6.6888314   -2768.1475 
   14300   -102151.74   -92356.836    237.89092    20721    226324.68    30.239975    -174.9381    227.19671    38.461313    434.70009    23.500024    22.155108   0.68755476    435.38765    7.0731285   -2802.7614 
   14400   -102141.24   -92289.255    239.27721    20721     226641.4     33.04447    135.64877    73.706087   -110.22145    435.14853    23.504341    22.159178   0.46333445    435.61187   -17.618439   -2837.6472 
   14500    -102078.1   -92329.406    236.76849    20721    226447.74    54.781722   -124.84531    53.211516    235.97896    434.96023    23.499382    22.154503   0.55748264    435.51772    1.5072724   -2824.2038 
   14600    -101988.5   -92251.754    236.47851    20721    226633.93    38.043325    111.60286    78.945557   -76.418439    435.08175    23.505757    22.160513   0.49672265    435.57848    3.4011082   -2898.0306 
   14700    -102099.9   -92259.959    238.98481    20721    226742.41    80.710356    172.90116    322.91868   -253.68878    434.97178    23.514354    22.168618   0.55170769    435.52349   -3.0149971   -2884.8561 
   14800   -102090.71   -92235.911    239.34561    20721    226753.15   -71.326847   -178.58004   0.29507502   -35.695579    435.04067    23.513049    22.167388   0.51726488    435.55794   -22.948055   -2883.0747 
   14900   -102198.33   -92274.972    241.01075    20721    226580.76   -51.144914   -126.74858   -152.33227     125.6461    435.03602    23.504235    22.159078   0.51958885    435.55561    13.758808   -2890.1835 
   15000   -102083.12   -92245.201    238.93557    20721    226663.63   -23.538343    126.40753   -133.07963   -63.942932    434.97083    23.510295    22.164791   0.55218528    435.52301    3.4423329   -2909.6371 
   15100   -102124.31   -92221.936      240.501    20721    226632.31    1.8714921    9.1108164   -37.640213    34.143873    434.98098    23.508396    22.163001   0.54711206    435.52809   -1.3500643    -2930.045 
   15200   -102169.06   -92270.995    240.39638    20721    226605.18   -70.114946   -94.845106   -171.13854    55.638809    434.84886    23.510559    22.165041   0.61316812    435.46203   -2.2963098   -2878.4559 
   15300   -101957.75   -92196.283    237.07874    20721    226539.55    26.160087    11.535698   -252.35598    319.30054    434.73124    23.510334    22.164828   0.67198177    435.40322    -13.30313   -2947.6905 
   15400   -102088.45   -92147.013    241.44988    20721     226500.3   -84.593486   -167.26481   -14.868746   -71.646905    434.88872    23.504041    22.158895   0.59324027    435.48196   -45.922713   -2960.5115 
   15500   -101944.79   -92200.487    236.66199    20721    226590.89    54.585653   -82.155401    504.00656    -258.0942    435.31473    23.497235    22.152478   0.38023462    435.69497   -29.727529   -2927.4986 
   15600   -101919.93   -92211.957    235.77964    20721    226470.79    -116.8171   -133.36451   -20.009008    -197.0778    434.61949    23.509788    22.164314   0.72785523    435.34734   -23.555805   -2919.8334 
   15700   -101975.95   -92219.935    236.94637    20721    226581.67    61.908072    19.479087    475.22168   -308.97655    434.79549    23.510783    22.165251   0.63985482    435.43535   -14.301051   -2929.1615 
   15800   -101925.55   -92185.012    236.57047    20721    226460.27   -33.053004   -190.22749   -156.36812    247.43661     434.6477    23.508479     22.16308   0.71374808    435.36145      -21.745   -2954.9645 
   15900   -101928.67   -92198.727    236.31329    20721    226556.44     94.90432   -84.363544    89.429145    279.64736    434.64719    23.513484    22.167798   0.71400271     435.3612   -20.347054   -2948.0123 
   16000   -101955.29   -92154.811    238.02644    20721    226454.67    29.757482   -90.506433    41.170629    138.60825    434.60674    23.509296     22.16385   0.73423077    435.34097    -28.18463   -2986.4556 
   16100   -102014.24   -92097.336    240.85401    20721    226527.09    -16.19162   -100.23333    -19.91126    71.569725     434.5636    23.514222    22.168493    0.7557986     435.3194   -38.938917   -3028.8681 
   16200   -101899.65   -92101.332    237.97392    20721    226381.03   -48.289945   -94.151327   -131.59225    80.873745    434.74449    23.501749    22.156735   0.66535323    435.40985   -26.190217    -3040.414 
   16300   -101973.95   -92105.937    239.66647    20721     226437.3    28.567606    123.67399   -18.721221   -19.249948    434.74513    23.504652    22.159472    0.6650334    435.41017   -36.024737   -3030.5181 
   16400   -102006.08   -92105.554    240.45612    20721    226274.64   -19.204571   -233.12034   -74.826402    250.33303    434.57181    23.500894    22.155928   0.75169323    435.32351    -19.26253   -3051.4115 
   16500    -101903.5   -92068.184    238.87243    20721    226339.87    14.571855   -14.810765    3.3853576    55.140972    434.66838     23.50167     22.15666   0.70341044    435.37179   -39.339225   -3068.0958 
   16600   -101925.73   -92058.862    239.63883    20721    226452.49    4.8885502    73.143206   -88.135961    29.658405    434.72381    23.506018    22.160759   0.67569555     435.3995   -28.197726    -3086.037 
   16700   -101845.36    -92025.23     238.5035    20721    226247.79    2.0454466   -11.151751    7.1117981    10.176293     434.6384    23.497699    22.152916   0.71839811     435.3568   -39.213466   -3115.5362 
   16800   -101815.02   -91979.185    238.88495    20721    226226.16   -76.278321   -65.825829    -84.91192   -78.097214    434.37236     23.50377     22.15864   0.85142086    435.22378   -33.905085   -3163.6882 
   16900   -101970.84   -91979.775    242.65523    20721    226283.62    -53.41688     71.35366    126.40478   -358.00908    434.14837    23.512818     22.16717   0.96341389    435.11179   -38.192456   -3160.6979 
   17000   -101931.33   -92003.433    241.12091    20721    226408.12    17.654391    204.16139    9.6606371   -160.85886    434.19769     23.51795    22.172008    0.9387536    435.13645   -26.724017   -3150.3043 
   17100   -101795.11   -91971.522    238.58762    20721    226405.81   -57.421651   -9.5512383   -106.92613   -55.787588    434.05544    23.521683    22.175528    1.0098798    435.06532   -36.175141   -3168.9423 
   17200   -101836.33   -91961.212    239.83916    20721    226233.14    32.251745    79.886919    22.754862   -5.8865468    434.34441    23.504889    22.159695   0.86539584     435.2098   -14.428801   -3211.1141 
   17300   -101895.75   -92008.757    240.12755    20721    226351.98    30.783782   -35.387751    119.02504    8.7140579    434.15943     23.51607    22.170236   0.95788589    435.11731   -2.3634139   -3175.3811 
   17400   -101897.07   -91998.055    240.41939    20721    226301.93   -36.531379    23.412703    59.197282   -192.20412    434.06748     23.51596    22.170132    1.0038577    435.07134   -7.7457016   -3180.5847 
   17500   -101815.12    -91996.17    238.47496    20721    226278.84    159.95968      273.658    140.45393    65.767103     434.1107     23.51359    22.167898   0.98225125    435.09295   -11.353364   -3188.5286 
   17600   -101805.57    -91971.17    238.85012    20721    226109.03    32.494784    80.545753   -16.630572     33.56917    434.15737    23.503502    22.158387   0.95891591    435.11628    -21.13822   -3202.3141 
   17700   -101857.52   -92013.332    239.08788    20721    226175.07   -8.8661406    -160.9443    381.30222   -246.95635    434.16739    23.506663    22.161367   0.95390669    435.12129    3.7917185   -3184.8556 
   17800   -101750.13   -92000.808    236.78375    20721    226110.62   -22.621848    98.495541   -1.6495726   -164.71151    434.09097    23.505382     22.16016   0.99211357    435.08309   0.86693044   -3194.0743 
   17900   -101713.49   -91945.153    237.24575    20721    226064.71    46.127231    171.72031    61.170577   -94.509198    434.06081    23.503812     22.15868    1.0071966      435.068   -1.7938169   -3253.9699 
   18000   -101784.83   -91927.555    239.40575    20721     226139.7    32.707989    86.436721   -101.78872    113.47597    434.25778    23.502379    22.157328   0.90871235    435.16649   -11.665791   -3259.2914 
   18100   -101899.26   -91923.454    242.28442    20721    226260.33   -37.351976   -31.221298   -55.257175   -25.577454    434.33263     23.50662    22.161327   0.87128518    435.20391   -19.376889   -3250.9244 
   18200   -101804.17   -91867.489    241.33438    20721    226126.15    39.931403    31.840727    163.06439   -75.110914    434.14663    23.504683      22.1595   0.96428738    435.11091    -27.11748   -3308.5375 
   18300   -101624.99    -91844.74    237.53514    20721    226069.51   -15.464755      18.2237   -167.46777     102.8498    434.25718    23.498747    22.153904   0.90901062    435.16619    -45.18034   -3311.2231 
   18400   -101758.38   -91814.724    241.50363    20721    226316.58    110.64241   -55.869113     19.63924    368.15711    434.43601    23.506745    22.161444   0.81959313    435.25561   -45.913344    -3340.644 
   18500   -101699.59     -91793.2    240.59852    20721    226251.79   -96.222043    -183.4029    22.859606   -128.12284    434.49731    23.501722    22.156709   0.78894267    435.28626   -40.100351   -3361.4803 
   18600   -101777.98   -91771.251    243.03566    20721    226220.94    36.693789    71.792182     61.48955   -23.200366    434.54959    23.498706    22.153865   0.76280653    435.31239   -56.970699   -3374.0821 
   18700   -101685.44   -91818.307    239.64509    20721    226071.15    36.829826    148.41393    -28.50196   -9.4224898    434.38805    23.495292    22.150647   0.84357448    435.23163   -57.502903   -3330.7988 
   18800   -101744.89   -91793.201    241.69879    20721    226076.88    61.668619   -32.772576    6.6995221    211.07891    434.44693    23.493998    22.149427   0.81413649    435.26106   -56.706254   -3358.9748 
   18900   -101736.98   -91759.814    242.31746    20721     226091.5   -11.996132   -160.59292    183.10446    -58.49993     434.3332    23.497833    22.153043   0.87099874     435.2042    -62.46241   -3383.3476 
   19000   -101821.22   -91802.341    243.33072    20721    226297.61   -26.712974    74.202809   -6.7538386   -147.58789    434.49973    23.504036    22.158891   0.78773407    435.28747   -47.818039   -3351.8618 
   19100   -101608.46   -91801.518    238.18338    20721    226261.36    8.1195483   -32.621734   -98.017469    154.99785    434.29117    23.507796    22.162435   0.89201717    435.18318   -54.218428   -3347.7201 
   19200   -101767.21   -91758.539    243.08261    20721    226359.41   -72.398797   -160.75307   -292.12867    235.68535    434.38673    23.510303    22.164799   0.84423519    435.23096   -58.456239   -3380.7642 
   19300   -101701.46   -91755.803    241.55241    20721     226369.5    42.286908   -20.683309     115.7107    31.833328    434.11073    23.518299    22.172337   0.98223381    435.09297   -66.250321   -3382.6674 
   19400   -101595.69   -91763.169    238.80444    20721    226413.79    76.476806    24.517334    136.59748    68.315609    434.34027    23.514384    22.168646   0.86746545    435.20773    -47.17956   -3394.5076 
   19500   -101723.67   -91693.114    243.61435    20721    226296.29   -55.725153   -209.58451   -196.47825    238.88731    434.32775     23.50862    22.163213   0.87372569    435.20147   -72.470231   -3439.8498 
   19600   -101620.64   -91717.603    240.51713    20721    226177.37    29.179273   -49.107648   -218.72932    355.37479    433.96938    23.512144    22.166535     1.052908    435.02229   -59.845695    -3436.197 
   19700   -101628.11   -91711.642     240.8433    20721     226314.4    46.232864    95.251398   -24.393355    67.840548    434.19076     23.51327    22.167596   0.94222151    435.13298   -59.094658   -3442.4934 
   19800   -101600.47   -91670.246    241.17743    20721    226272.23    13.132516   -45.298435  -0.20697157    84.902955    434.33021    23.507304    22.161972    0.8724971     435.2027    -65.48347   -3475.6285 
   19900   -101818.91   -91660.364    246.72289    20721    226352.59    2.7797728   -96.590476    66.461919    38.467875     434.1901    23.515271    22.169483   0.94254967    435.13265   -68.644769   -3483.1766 
   20000   -101604.06   -91629.658    242.25039    20721    226180.99    39.086559   -16.098439    3.3364063    130.02171    434.10751    23.508592    22.163186   0.98384341    435.09136   -74.320067   -3512.5889 
   20100   -101700.33   -91674.011    243.51131    20721    226228.86   -13.544435    17.851832    163.89616    -222.3813    434.22278    23.507959    22.162589   0.92621168    435.14899   -56.572507   -3485.9917 
   20200   -101664.06   -91659.556     242.9816    20721    226177.27   -111.06687   -149.62003    131.90588   -315.48647    434.14372    23.507418    22.162079   0.96574144    435.10946   -57.372863   -3497.6482 
   20300   -101601.18   -91636.546    242.01324    20721    226162.85    60.853802    177.36681     261.5419    -256.3473    434.20411    23.505034    22.159832    0.9355473    435.13965   -38.652242   -3549.4952 
   20400   -101618.75   -91657.835    241.92296    20721    226303.84    71.126479    332.37293   -104.63804   -14.355456    434.25968    23.510855     22.16532   0.90776127    435.16744   -31.107482   -3532.3039 
   20500   -101620.49   -91638.815    242.42703    20721    226380.82   -10.661778    143.11613   -19.565203   -155.53626    434.46112    23.509401    22.163949   0.80704065    435.26816   -29.983577   -3549.3444 
   20600   -101587.68   -91609.168    242.35018    20721    226533.16   -64.116247   -142.50483   -61.982082    12.138171    434.72643    23.510133    22.164639   0.67438303    435.40082   -13.835643   -3588.9118 
   20700   -101618.77   -91629.721     242.6061    20721    226223.86   -23.280058   -109.59516   -32.994753    72.749743    434.18591    23.508697    22.163285    0.9446459    435.13055   -31.470412   -3562.9755 
   20800   -101633.98   -91592.329    243.88365    20721    226607.75    11.337188    92.123752   -124.27656     66.16437    434.55975    23.518512    22.172539   0.75772646    435.31747   -16.868736   -3605.4062 
   20900    -101595.8   -91588.904    243.03974    20721    226404.98   -1.5147579    104.45912   -140.47412    31.470726    434.59712    23.506977    22.161663   0.73903985    435.33616   -20.414692   -3612.9664 
   21000   -101569.13   -91584.959    242.48767    20721    226579.16    77.501822    73.335853   -77.125756    236.29537    434.54997    23.517293    22.171389   0.76261728    435.31258   -14.380378   -3621.0591 
   21100   -101594.79   -91587.003    243.06123    20721    226223.08   -67.657903   -66.463534   -162.02276    25.512586    434.33512    23.504618    22.159439   0.87004113    435.20516   -15.247801   -3623.6136 
   21200   -101540.05   -91564.902    242.26857    20721    226539.42    4.3300612    71.404122   -77.917631    19.503692     434.4752    23.517254    22.171352   0.79999825     435.2752   -31.322362   -3624.2361 
   21300   -101486.91   -91531.967    241.77787    20721    226402.23    20.309802   -43.595208    144.54095   -40.016331    434.56175    23.507791     22.16243    0.7567248    435.31848   -34.311337   -3660.7548 
   21400      -101442   -91492.866    241.63679    20721    226360.11    87.917137    132.10711    -56.35624    188.00054    434.47232    23.508023     22.16265   0.80144115    435.27376    -56.71328   -3682.7925 
   21500    -101591.3   -91522.984     244.5313    20721    226408.12   -73.302189   -131.50721   -346.90139    258.50203    434.52104    23.509198    22.163757   0.77707831    435.29812   -56.543063   -3646.2234 
   21600   -101565.54   -91526.847    243.81189    20721    226342.51   -34.303965   -96.312502   -111.05622    104.45683    434.36039    23.510138    22.164643   0.85740391     435.2178   -31.204239    -3673.077 
   21700   -101612.21   -91523.949     245.0157    20721    226390.55     4.453742    82.853516    149.69133   -219.18362    434.50481    23.508724    22.163311    0.7851951       435.29    -16.49784   -3690.4734 
   21800   -101534.28   -91512.044    243.41225    20721    226344.74   -78.431373   -95.422121    187.83933   -327.71133    434.42815     23.50842    22.163024   0.82352628    435.25167   -8.8562223   -3708.3676 
   21900   -101491.37   -91538.205    241.73454    20721    226114.35    3.2057697    32.968444     16.15705   -39.508185    434.12611    23.504625    22.159446   0.97454559    435.10065   -23.582408   -3678.3046 
   22000   -101527.33    -91512.81     243.2248    20721    226380.62   -37.720065    13.124616   -441.35601     315.0712    434.57119    23.506414    22.161132    0.7520059    435.32319   -14.683471   -3704.5547 
   22100   -101620.95   -91478.078    246.34207    20721    226202.11   -86.176961   -58.534723   -310.81556     110.8194    434.35655    23.502949    22.157865   0.85932404    435.21588   -1.6580632   -3757.1433 
   22200   -101534.09   -91500.667    243.68385    20721    226105.01   -6.5635347     88.86036   -175.99536    67.444394    434.19034    23.502401    22.157349   0.94242976    435.13277    17.994492   -3760.3882 
   22300   -101580.49   -91519.386    244.35616    20721    226208.84   -14.437397    35.654046   -25.344294   -53.621942    434.08006    23.510783    22.165251   0.99757026    435.07763    8.2501979   -3730.5775 
   22400    -101575.8   -91535.451    243.85216    20721    225980.08    26.757038    80.518855   -148.79808    148.55034    433.69875    23.509219    22.163777    1.1882264    434.88697    26.135657   -3742.7737 
   22500   -101521.08   -91491.878    243.58129    20721    226262.55   -63.586198   -194.47434    59.599384   -55.883644    433.96601    23.516663    22.170795    1.0545951     435.0206    9.4101677   -3757.6598 
   22600   -101640.16   -91490.345    246.51072    20721    226150.22   -21.097234    78.974364   -86.636054   -55.630013    433.81774    23.514842    22.169078    1.1287283    434.94647   -5.5966684    -3751.709 
   22700   -101507.37    -91475.21    243.65315    20721    225908.63   -35.970855   -44.982124   -123.62553    60.695088    433.61329    23.507819    22.162457    1.2309547    434.84425    -25.62924   -3752.8871 
   22800   -101504.49   -91476.769     243.5453    20721    226015.17    40.688132    300.27299   -166.94755   -11.261044    433.64267    23.512565    22.166931    1.2162652    434.85893   -19.418189   -3760.5077 
   22900   -101496.59    -91422.08    244.68178    20721    226039.14   -49.455267    22.783856   -154.50652   -16.643139    433.63702    23.513965    22.168251    1.2190886    434.85611   -27.776993    -3801.869 
   23000   -101392.81   -91388.669    242.97273    20721    226045.44   -31.048064    107.60988    19.775484   -220.52955    433.82579    23.509176    22.163736    1.1247065    434.95049   -27.219477   -3836.2684 
   23100   -101415.25   -91326.424    245.02941    20721    225789.35    13.030592    102.95027    53.632776   -117.49127    433.67156    23.500033    22.155116    1.2018209    434.87338   -53.813387   -3883.5004 
   23200   -101364.79   -91332.206    243.66356    20721    225897.34    29.325576    99.577477    -108.3158    96.715057    433.66598    23.505803    22.160557    1.2046096    434.87059   -57.678094   -3870.3995 
   23300   -101461.04   -91381.443    244.80521    20721    226094.33   -57.932198    58.680375    37.669223   -270.14619    433.96264    23.508011    22.162638    1.0562799    435.01892   -34.187294   -3835.9388 
   23400   -101513.62   -91369.471    246.37315    20721    225955.91   -54.084994   -83.769034   -30.634561   -47.851386    434.08654     23.49746    22.152691   0.99433208    435.08087   -22.618514   -3865.3794 
   23500   -101387.09   -91318.601    244.53557    20721    226038.47    26.014589    9.8754245   -28.559128     96.72747    433.80309    23.509429    22.163975    1.1360573    434.93914   -43.518097   -3896.7058 
   23600   -101391.01   -91311.225    244.80997    20721    226028.79    19.145989      106.394   -113.27457    64.318542    433.88428    23.506726    22.161426    1.0954603    434.97974   -57.292196   -3893.7817 
   23700   -101362.43   -91287.601    244.68964    20721    226042.82   -63.437173   -112.34846     13.60577   -91.568834    434.24287    23.497747    22.152961    0.9161649    435.15904   -75.944683   -3894.7523 
   23800   -101399.14   -91321.279    244.76313    20721    226007.64    48.230496    162.59854    73.990318   -91.897371     433.9694     23.50332    22.158216    1.0528993     435.0223   -95.042199   -3848.6734 
   23900   -101460.71   -91344.308    245.69929    20721    226135.42   -85.266503   -167.25254   -251.30995    162.76297    434.13755     23.50541    22.160186   0.96882576    435.10637   -88.888144   -3824.6365 
   24000   -101311.92    -91306.43    243.00543    20721    226252.12      95.9334    227.49357   -61.286421    121.59305    434.16588    23.510707     22.16518   0.95466019    435.12054   -100.59517   -3855.0509 
   24100   -101351.84   -91367.868    242.48284    20721    226275.42    -8.772222    47.611939   -170.36415    96.435545    434.14032     23.51261    22.166974   0.96743912    435.10776   -61.229284   -3829.3989 
   24200   -101327.06   -91310.413    243.27657    20721     226528.6    23.796513    121.95912    193.79945   -244.36903    434.42804    23.517969    22.172026   0.82358065    435.25162   -66.529885   -3876.2474 
   24300    -101263.9   -91295.425    242.10654    20721    226179.01    121.58532    188.65787    345.17606   -169.07797    434.13245    23.507814    22.162452   0.97137412    435.10383   -69.999802   -3904.6095 
   24400   -101378.86   -91297.906    244.83832    20721    226256.66    20.010206    187.95866   -169.83626    41.908217    434.30066    23.507295    22.161963   0.88726973    435.18793   -77.279699   -3888.0707 
   24500   -101415.39   -91285.292    246.03192    20721    226333.91    -57.26154    4.1782116   -234.61524     58.65241    434.31443    23.510935    22.165395    0.8803856    435.19481   -60.558535   -3913.9559 
   24600   -101387.77   -91242.337    246.40424    20721    226371.44    8.1472325     123.9246    20.234512   -119.71741    434.24272    23.514825    22.169063   0.91624121    435.15896   -77.517713    -3941.448 
   24700   -101339.18   -91272.115    244.50084    20721    226247.86   -10.112029    27.050608   -21.962327   -35.424369    434.21015    23.509288    22.163842   0.93252525    435.14267   -63.214658   -3930.0858 
   24800   -101359.52   -91226.297    246.10781    20721    226180.68  -0.65482106   -79.843439   -65.225059    143.10403    434.18412    23.506502    22.161215   0.94554172    435.12966   -92.804655   -3951.1257 
   24900   -101297.86   -91177.932    245.78487    20721    226173.77   -57.033144   -104.04958   -133.18013    66.130284    434.18381    23.506151    22.160885   0.94569691     435.1295   -77.729857    -4010.788 
   25000    -101245.1   -91192.297    244.15455    20721    226282.47    13.025627    9.7756811   -32.725443    62.026644    434.15853    23.512483    22.166854   0.95833419    435.11687    -77.44521   -3998.4965 
   25100   -101327.21   -91189.187    246.22434    20721    226414.48    94.611339   -3.8352416    356.56242   -68.893166    434.25609    23.516699    22.170828   0.90955271    435.16565   -65.172717   -4016.2405 
   25200   -101210.89   -91164.904    243.98905    20721    226486.82     40.59545    -78.25369    195.07543    4.9646101    434.37657    23.517193    22.171295   0.84931462    435.22589   -71.003116   -4029.0207 
   25300    -101328.5   -91197.281    246.05901    20721    226266.72    -39.95187   -36.431937    118.62715   -202.05083    434.09951    23.513263     22.16759   0.98784354    435.08736   -63.970159   -4008.2465 
   25400   -101383.45   -91206.869    247.16069    20721    226123.75   -54.121438   -209.61498   -174.98252    222.23318    434.08383    23.506258    22.160986   0.99568712    435.07951   -65.176345   -4001.4798 
   25500    -101301.6   -91193.067    245.50802    20721    226153.44    71.240279   -97.481268    40.217376    270.98473    433.89609    23.512886    22.167234    1.0895555    434.98564   -70.696508   -4016.4583 
   25600   -101185.58   -91190.895    242.74309    20721    226164.06    7.2033358    103.78895   -42.903085   -39.275862    433.94372    23.512148    22.166538    1.0657404    435.00946   -51.332093   -4036.4039 
   25700   -101333.69   -91190.603    246.34731    20721    226220.67   -30.616369   -231.45777   -192.02971    331.63837    433.87458    23.516964    22.171079    1.1003115    434.97489    -56.80431   -4029.8424 
   25800   -101350.99    -91183.51     246.9398    20721    225962.47   -56.355091   -11.197274     234.2772    -392.1452     433.6449    23.509763     22.16429    1.2151524    434.86005   -63.908054   -4037.6303 
   25900   -101429.95   -91243.378    247.40337    20721    226114.13   -18.041429    7.1770485   -249.97805    188.67671    433.83056    23.512618    22.166982    1.1223191    434.95288    -65.08746   -3975.4083 
   26000   -101369.51   -91209.268    246.76389    20721    226117.56    7.4336715    85.518945   -121.33578    58.117853    433.90931    23.510663    22.165138    1.0829472    434.99225   -77.734352   -3998.4174 
   26100   -101300.44   -91231.423    244.54844    20721    226315.16    68.974433    76.946184    237.45563   -107.47852    434.09799    23.515821    22.170001   0.98860645    435.08659   -37.180069   -4013.9553 
   26200    -101300.2   -91181.417    245.75705    20721    225963.85    39.037127    132.18882    14.161181   -29.238622    433.64936    23.509714    22.164244     1.212922    434.86228   -81.954151   -4029.3638 
   26300    -101251.7   -91174.891    244.73764    20721    226236.66    78.733748    67.644039   -54.352383    222.90959    433.72518    23.521845     22.17568    1.1750081    434.90019   -72.995254   -4039.4615 
   26400   -101241.13    -91101.68    246.25905    20721    226065.34    15.364134   -39.592953    36.668837    49.016517    433.74647    23.512361    22.166739    1.1643671    434.91083   -81.626047   -4107.1465 
   26500   -101206.67   -91096.418    245.54973    20721    226289.89   -107.73816    -98.21321   -79.597033   -145.40423     434.0511    23.515778    22.169961    1.0120517    435.06315   -86.746754   -4096.4703 
   26600   -101273.45   -91145.479    245.98016    20721    226178.35   -37.598408   -63.660523     77.05654   -126.19124    434.14868     23.50734    22.162006   0.96325775    435.11194   -90.740669   -4049.6223 
   26700   -101253.15   -91105.008    246.47001    20721    226352.24   -49.742726   -82.311087   -71.405165    4.4880744    434.13071    23.516862    22.170982   0.97224744    435.10295    -89.85106   -4086.5909 
   26800   -101263.57   -91119.587    246.36903    20721    226297.27    18.793559    -43.48202   -107.03844    206.90114    433.98785    23.517875    22.171938    1.0436746    435.03153   -92.133254   -4076.2716 
   26900   -101196.29   -91091.253    245.42319    20721    226079.44     56.44376    88.372734    30.250775    50.707772    434.03009     23.50541    22.160186    1.0225565    435.05264   -101.08346   -4103.6392 
   27000   -101324.33   -91110.443     248.0668    20721    226267.19   -72.988141    90.477464   -66.951826   -242.49006    434.10634    23.513103    22.167439   0.98443172    435.09077   -82.230835   -4095.0624 
   27100   -101178.45   -91028.988    246.50215    20721    226350.17   -38.132297    51.288589   -7.4707424   -158.21474     433.9718    23.521059    22.174939    1.0516992     435.0235   -89.005238   -4167.5591 
   27200   -101255.55   -91063.627    247.53341    20721    226366.09    50.858261    158.16908    54.935537   -60.529836    434.23853    23.514661    22.168908   0.91833256    435.15687    -82.22855    -4145.049 
   27300   -101245.72   -91088.981    246.67877    20721    226247.01   -49.316064   -153.41789    137.82483   -132.35514    434.03278    23.514047    22.168328    1.0212123    435.05399   -72.354567   -4130.2916 
   27400   -101229.74    -91046.03    247.33401    20721    226270.09    61.835672    75.009182    165.66874   -55.170907    433.80044    23.521542    22.175395     1.137379    434.93782   -75.039812    -4176.426 
   27500   -101322.18   -91112.417    247.96669    20721    226030.56   -136.50713   -151.17083    51.702832    -310.0534    433.84561    23.507865    22.162501     1.114796     434.9604   -63.971006   -4119.5154 
   27600   -101217.95   -91077.497    246.28346    20721    226192.53   -29.593153    9.3769063   -143.35932    45.202957    433.83494    23.516576    22.170713    1.1201312    434.95507   -51.276275   -4169.4916 
   27700   -101256.36   -91079.098     247.1773    20721    225893.34    87.838411    83.922125   -42.521038    222.11415    433.50693    23.509907    22.164426    1.2841346    434.79107   -65.718314   -4169.4965 
   27800   -101239.14   -91018.007     248.2428    20721    225896.39      23.0248   -55.728062   -12.266839     137.0693    433.63226    23.506668    22.161372    1.2214714    434.85373   -94.038799   -4199.5928 
   27900   -101188.42   -91025.895    246.81949    20721     225976.7    1.4896145   -2.0871448    183.75191   -177.19592     433.6648    23.509964    22.164479    1.2052021       434.87   -93.067209   -4190.7039 
   28000   -101110.94   -91060.105    244.10686    20721    225999.95   -36.531077    47.156244   -101.23697   -55.512499    433.64182    23.511796    22.166207    1.2166882    434.85851   -83.848238   -4162.4021 
   28100   -101121.01   -91010.524    245.55549    20721    225912.17    49.424405    99.845163    26.425102     22.00295    433.52717    23.510338    22.164832    1.2740143    434.80119   -72.478955   -4231.5664 
   28200    -101204.3   -91013.736    247.50038    20721    225962.88    1.6231685    142.00231   -194.26679    57.133994    433.35301    23.517701    22.171773    1.3610967     434.7141   -80.893335   -4217.0277 
   28300   -101191.94   -90978.428    248.05761    20721    225878.68   -2.6570183    84.877644   -51.157937   -41.690762    433.23188    23.516606    22.170741    1.4216614    434.65354   -81.072054   -4255.7394 
   28400   -101126.64   -90932.886    247.57793    20721    225919.48   -20.526757   -86.416805    119.19826   -94.361731    433.29272    23.517078    22.171186    1.3912411    434.68396   -74.292304   -4308.0283 
   28500   -101055.62     -90896.1    246.74652    20721     225996.6    13.133127    160.69442   -110.92871   -10.366325    432.95946    23.530142    22.183503     1.557871    434.51733   -86.726969    -4333.112 
   28600   -101093.76   -90946.936    246.43815    20721     225776.8   -85.372887    -132.9471   -245.43897    122.26741     433.2191    23.511648    22.166067    1.4280518    434.64715    -70.77779   -4300.5686 
   28700   -101139.21   -90924.543    248.08574    20721    226001.22    14.403584    92.976436   -77.782334     28.01665    433.45422     23.51695    22.171065    1.3104909    434.76471   -66.499272   -4327.5682 
   28800   -101139.05    -90950.43    247.45328    20721    225775.37   -80.193244   -261.61499   -205.98109    227.01635    433.27534    23.510048    22.164558    1.3999299    434.67527   -69.647822   -4299.9775 
   28900   -101095.62   -90903.891    247.52864    20721    225791.78   -2.7891721   -234.72455    63.846252    162.51078    433.36707    23.508414    22.163018    1.3540634    434.72114   -83.590902   -4339.4525 
   29000   -101150.43   -90929.882    248.22871    20721     225776.3    11.665761    78.718012   -42.800117  -0.92061258    433.28515     23.50983    22.164353     1.395026    434.68017   -80.434886   -4319.1557 
   29100   -101145.74   -90953.626    247.53802    20721    225916.61    115.48152    55.188875     277.2776    13.978093    433.20439    23.519326    22.173306    1.4354061    434.63979   -88.401806   -4290.4344 
   29200   -101139.58   -90955.111    247.35247    20721    225831.43    54.168996    184.10868   -32.223212     10.62152    433.43807    23.508552    22.163148    1.3185631    434.75664   -78.152585    -4299.156 
   29300   -101059.47   -90889.608    246.99759    20721    225881.02    35.510215     185.4625   -73.021329   -5.9105309    433.20457    23.517468    22.171554    1.4353162    434.63988   -93.031605   -4349.6499 
   29400   -101138.78   -90855.542    249.75112    20721    225848.47   -64.780279   -85.396096   -185.79962    76.854882    433.10866    23.518378    22.172411    1.4832698    434.59193   -89.400607   -4382.3905 
   29500   -100984.61   -90835.243    246.49992    20721    225709.48   -8.4324428    49.592897   -101.21806    26.327836    433.20425    23.508545    22.163142    1.4354729    434.63973   -77.913245   -4420.8077 
   29600   -101042.33   -90840.593    247.77176    20721    225868.74    56.568052    34.517761    197.72181   -62.535419    433.42382     23.51088    22.165343    1.3256885    434.74951   -54.336629   -4440.7764 
   29700   -101026.42   -90802.605    248.30787    20721    225732.92    -23.23705    23.123338   -39.617792   -53.216695    433.36666     23.50536    22.160139    1.3542699    434.72093   -74.307182   -4459.0587 
   29800   -101048.07   -90799.392    248.91177    20721     225908.5    12.917286     53.18855   -87.195324    72.758632    433.40378    23.513494    22.167807    1.3357122    434.73949   -68.990512    -4466.299 
   29900    -100999.1   -90819.607    247.23142    20721    225766.39   -56.972193     56.33271   -59.808642   -167.44065    433.09378    23.514508    22.168763    1.4907101    434.58449   -64.964227   -4451.3246 
   30000      -101090   -90848.249     248.7435    20721    225879.27   -16.552274   -33.488695   -37.395818    21.227692    433.03047    23.522104    22.175925    1.5223642    434.55284   -58.791601    -4427.236 
   30100   -100987.05   -90880.187    245.46751    20721    225652.08    2.2190384    80.030768    32.635389   -106.00904    432.77219    23.517287    22.171383    1.6515027     434.4237   -61.241485   -4400.4105 
   30200   -101022.97   -90860.184    246.82584    20721     225760.6    74.368171   -0.8655241    237.68389   -13.713855    433.02272    23.516135    22.170297    1.5262383    434.54896   -77.397374   -4406.9973 
   30300   -101067.86   -90861.467    247.88491    20721    225812.52   -10.141597    78.608061   -214.17226    105.13941     433.3067    23.511131     22.16558     1.384252    434.69095   -51.398108   -4427.1673 
   30400   -101081.79   -90802.831    249.64728    20721    225634.08    14.111602   -177.47473    23.536136     196.2734    432.87177    23.513643    22.167948    1.6017132    434.47349   -94.167401   -4451.3795 
   30500   -100991.47   -90753.757    248.64541    20721    226004.43    72.514173    204.00923    107.74633   -94.213033    433.15558    23.525222    22.178864    1.4598117    434.61539   -99.953043   -4486.8993 
   30600   -100951.64   -90756.914    247.60154    20721    225951.59    52.441156    81.428887   -69.505335    145.39992    433.28385     23.51899    22.172989    1.3956737    434.67953   -82.144012   -4503.7536 
   30700   -100918.86   -90755.132    246.84871    20721    225740.11    15.758301    9.7960754   -101.21823    138.69706     432.9677    23.516562      22.1707    1.5537518    434.52145   -100.57784   -4490.8019 
   30800   -101029.86   -90754.713    249.55463    20721    225940.15    16.773245    67.576068    95.944081   -113.20041    433.12682    23.522658    22.176447    1.4741902    434.60101   -93.745376   -4494.6071 
   30900   -101051.95   -90737.331    250.51333    20721    225762.07    75.968404    155.69579   -1.8629709    74.072396    433.23175    23.510538     22.16502    1.4217251    434.65347   -91.959668   -4523.4833 
   31000   -101091.09   -90740.458    251.38799    20721    225803.82   -96.078473     13.83038   -222.41388   -79.651916    433.33641    23.509872    22.164393    1.3693968     434.7058   -99.881007   -4504.2138 
   31100   -101104.75   -90732.081    251.92315    20721    225843.73   -88.955799   -314.59876     67.38648   -19.655122    432.97397    23.521789    22.175627    1.5506159    434.52458   -105.04425   -4508.5146 
   31200   -100942.88   -90668.233    249.54254    20721    225843.37    4.5158458   -13.658758   -178.57892    205.78521    433.13123    23.517499    22.171583    1.4719828    434.60322   -106.02408   -4577.3156 
   31300   -100895.23    -90645.02    248.94904    20721    226096.01    34.591076    48.025326    46.800029    8.9478722    433.41946    23.522824    22.176603    1.3278704    434.74733   -121.11547   -4579.1853 
   31400   -100921.53   -90627.947    250.00248    20721    226124.97    53.795021   -56.941649    64.744447    153.58227    433.54108    23.521031    22.174913    1.2670583    434.80814   -134.19381   -4583.8279 
   31500   -100881.77   -90586.274    250.04896    20721     226103.1    30.495132    301.89996   -313.38773    102.97316    433.44847    23.522405    22.176209    1.3133645    434.76184   -129.47225   -4633.2515 
   31600   -100889.19   -90607.567    249.71194    20721    225876.55   -46.300383   -177.95431   -3.6143909    42.667554    433.43774    23.510909     22.16537    1.3187298    434.75647   -125.05543    -4620.743 
   31700   -100897.72   -90624.324     249.5122    20721    226063.84    41.539124    57.734716   -224.90714     291.7898     433.3651    23.522626    22.176416    1.3550498    434.72015   -121.31048   -4608.5927 
   31800   -100923.93   -90641.494    249.73168    20721    226013.91    9.8211479    101.26066   -103.98652    32.189303    433.77772    23.508838    22.163418    1.1487378    434.92646   -116.96489   -4596.1044 
   31900   -100879.87   -90560.019    250.64048    20721    226321.53     70.29721    235.17908   -243.58278    219.29533    434.02175    23.518218    22.172261    1.0267243    435.04848   -120.33671   -4673.1539 
   32000   -100829.85   -90578.831    248.96872    20721     226150.1    16.541606    17.520054    183.43659   -151.33183    433.59436    23.520892    22.174782    1.2404175    434.83478   -138.46639   -4638.3593 
   32100   -100862.23   -90537.588    250.75676    20721    226448.74    19.230667    169.68001    91.413351   -203.40136    433.84072    23.529734    22.183117    1.1172404    434.95796   -128.73808   -4682.4765 
   32200   -100898.67   -90548.169    251.38471    20721    226067.37   -10.007186   -153.41906    75.709832    47.687668     433.6174    23.515965    22.170137    1.2288982     434.8463   -127.63995   -4683.4425 
   32300    -100893.2    -90527.61    251.75141    20721    226405.76    59.583243    35.629044    161.96807   -18.847385    433.98628    23.523555    22.177292    1.0444602    435.03074    -130.5971   -4695.4937 
   32400    -100818.2   -90550.655    249.37011    20721    226107.68     25.77989    201.82689    56.811538   -181.29876    433.80509    23.512973    22.167317    1.1350574    434.94014   -131.61989   -4679.9861 
   32500   -100776.88   -90560.793    248.12026    20721    226164.15   -34.463464   -102.06315    2.6763264   -4.0035675    433.94336    23.512162    22.166552    1.0659189    435.00928    -111.7403   -4685.4874 
   32600    -100876.8   -90520.175    251.53357    20721    226123.56   -105.37524   -225.85182   -206.10709    115.83319    433.75336    23.515201    22.169417     1.160922    434.91428   -110.32434   -4727.9176 
   32700    -100839.8   -90532.242    250.34197    20721     226345.2   -46.743915    17.286253   -192.84398    35.325977    434.16661    23.515523     22.16972   0.95429452    435.12091   -101.33234   -4722.1671 
   32800   -100884.82   -90531.172    251.46119    20721    226253.36   -12.212886   -47.093968    64.480363   -54.025053    434.40567    23.504282    22.159122   0.83476355    435.24044   -100.66403   -4729.7316 
   32900   -100893.52   -90494.728    252.55765    20721    226338.93    98.854931    253.09212    78.408577   -34.935904    434.42802    23.508122    22.162743   0.82359122    435.25161   -138.39212   -4733.3736 
   33000   -100767.56   -90499.673    249.37837    20721    226461.34    101.29191     96.88278    64.914411    142.07853    434.33197    23.517077    22.171186   0.87161373    435.20359   -116.28174   -4747.1569 
   33100   -100796.89   -90465.941    250.91001    20721    226421.09   -8.3224856    46.897354   -110.45297     38.58816    434.26379    23.516834    22.170956   0.90570543    435.16949   -105.14515   -4788.6342 
   33200   -100734.23   -90419.858    250.50729    20721    226197.83    62.887508   -34.883453    235.05373   -11.507748    433.77065    23.518594    22.172615    1.1522749    434.92293   -124.88997   -4826.4712 
   33300    -100787.9   -90505.332    249.73493    20721    226259.83    55.836634    94.697435   -242.51568    315.32815    433.93348    23.517403    22.171493      1.07086    435.00434   -102.94854   -4762.5497 
   33400   -100788.63   -90484.423    250.26059    20721    226470.59    -43.36732   -189.28938    198.16517   -138.97775    433.95221    23.527846    22.181338    1.0614966     435.0137   -106.04864   -4769.7131 
   33500   -100837.01   -90495.652    251.16288    20721    226207.47    55.985327    288.55139    53.412912   -174.00832    433.78339    23.518749    22.172762    1.1459048     434.9293   -123.12261   -4758.4889 
[...]
  491800   -96090.995   -84432.858    283.14365    20721    221650.49    85.944765    401.33919   -113.60426   -29.900635    423.82887    23.552461    22.204544    6.1231659    429.95203    5781.1694   -23921.486 
  491900    -96002.64   -84456.413    280.42567    20721    221539.19    97.303873    172.11697   -227.66253    347.45718     423.6271    23.552154    22.204255    6.2240499    429.85115     5792.832   -23915.674 
  492000   -95836.891     -84447.9    276.60687    20721    221579.48   -26.510774    -55.38971      228.989   -253.13161    424.10519    23.541016    22.193754    5.9850072    430.09019    5797.0859   -23922.506 
  492100   -95898.248   -84416.803    278.85229    20721    221823.66    20.688862     92.15421   -268.25431    238.16669    424.08666    23.554497    22.206464    5.9942714    430.08093      5795.37   -23947.759 
  492200   -95984.148   -84407.853    281.15594    20721    222055.12     144.1254    313.14314     366.0971   -246.86402    424.54916    23.553943    22.205941    5.7630216    430.31218    5800.9098   -23962.309 
  492300   -96003.618   -84426.777    281.16921    20721    222103.97   -71.027021   -62.527948    46.014252   -196.56737    424.60329    23.555032    22.206968    5.7359546    430.33925    5835.7279   -23967.842 
  492400   -95906.484   -84400.712    279.44312    20721    221929.46    33.961469   -42.331693    179.21315   -34.997046    424.39297     23.55161    22.203742    5.8411157    430.23408    5812.6998   -23980.199 
  492500   -95831.082   -84372.325    278.30128    20721    221602.01   -3.7743746    122.27052    -124.7481   -8.8455391    424.13427    23.541405    22.194121    5.9704668    430.10473    5805.0057   -24013.668 
  492600    -95919.24   -84402.432    279.71118    20721    221729.08    56.959594    46.637045   -155.63258    279.87432    424.68399    23.532908    22.186111    5.6956055    430.37959    5832.4213   -24011.088 
  492700   -96036.675   -84429.944    281.89514    20721    221838.97   -38.861892   -42.125103   -155.36571     80.90514    424.57462     23.54177    22.194465    5.7502898    430.32491    5815.5438   -23960.091 
  492800   -95854.727   -84395.062    278.32333    20721    221659.27    63.161144    40.389465    11.620508    137.47346    424.53727    23.533269     22.18645     5.768966    430.30623    5825.5427   -24015.534 
  492900   -95784.784   -84364.742      277.361    20721    221690.95   -63.636052    25.189577   -157.44345    -58.65428    424.86179    23.525961     22.17956     5.606707    430.46849    5783.1875   -23998.269 
  493000   -95917.318   -84391.207    279.93712    20721    221676.68    130.81876    248.40775    258.59483   -114.54629    424.99748    23.521448    22.175306    5.5388609    430.53634    5797.3372    -23998.61 
  493100   -96027.546   -84421.469    281.87927    20721    221834.16   -6.4350472   -47.653571   -26.585668    54.934097    425.44121    23.517527     22.17161    5.3169973     430.7582    5795.9289   -23958.417 
  493200   -95963.628   -84427.669    280.17629    20721    221511.55    17.548564     92.11441    107.00295   -146.47167     425.0485    23.511274    22.165714    5.5133521    430.56185    5798.7773   -23966.574 
  493300   -95975.214   -84404.595     281.0181    20721    221457.48   -54.618235   -106.13997   -232.63073    174.91599    424.89422    23.512672    22.167032     5.590491    430.48471    5790.5481   -23982.352 
  493400   -95931.311   -84415.037    279.69821    20721     221678.2   -24.977764   -16.375558   -30.961856    -27.59588    424.98235    23.521947    22.175776    5.5464248    430.52878    5803.2235    -23980.46 
  493500   -95932.036   -84453.201    278.78891    20721    221627.08   -100.70583   -23.484055   -141.51867   -137.11477    424.99598    23.518857    22.172864     5.539608    430.53559    5819.2956   -23958.067 
  493600   -95984.069   -84435.877    280.47339    20721    221621.65    114.94955    140.16653    256.91068   -52.228574    425.07116    23.516489    22.170631    5.5020209    430.57318    5814.6509   -23980.224 
  493700   -95973.972   -84413.571    280.76993    20721    221690.55    -2.641767     171.8095   -45.377173   -134.35763    425.46854    23.509158     22.16372    5.3033312    430.77187    5827.3456   -24010.914 
  493800   -95983.694   -84419.727    280.85652    20721    221796.52    18.060162    36.481278   -5.9181703    23.617378    425.25347    23.520722    22.174621     5.410864    430.66434    5816.2491   -23992.559 
  493900   -95920.015   -84425.721    279.16437    20721    222084.75    67.565465    28.090935    274.80434   -100.19888    425.63949    23.525325    22.178961    5.2178574    430.85734    5837.4697   -24000.401 
  494000   -96002.965    -84483.09    279.78566    20721     221736.6   -91.824489    130.99128   -132.88932   -273.57543    425.33745    23.515222    22.169437    5.3688754    430.70632    5838.7188   -23951.658 
  494100   -96083.285   -84485.062    281.68851    20721    221514.92    99.217558    151.77887    45.580856    100.29295    425.43945    23.500647    22.155696    5.3178763    430.75732    5830.4545   -23963.117 
  494200   -95974.205   -84453.488    279.80611    20721    221651.72     60.76593    146.23524    129.05267   -92.990122    425.35213    23.510316    22.164811    5.3615332    430.71367    5841.4542    -23998.36 
  494300   -95976.144   -84421.479    280.63061    20721    221560.74    13.551037   -23.837743    166.62408   -102.13323    425.28636    23.507307    22.161975     5.394419    430.68078    5832.1378   -24022.398 
  494400   -95925.842   -84442.394    278.90095    20721     221416.6    38.663532    68.186589   -77.922544    125.72655    425.47555    23.494435    22.149839    5.2998254    430.77537    5824.3214   -24001.709 
  494500   -95928.561   -84436.367    279.11336    20721    221499.92   -30.909256   -80.995064   -261.23399    249.50128    425.68619     23.49304    22.148524    5.1945047     430.8807    5852.6418   -24032.002 
  494600   -96009.098   -84408.464    281.74707    20721    221847.51   -31.033474   -232.67224   -265.17232    404.74414    425.50269    23.516535    22.170675     5.286256    430.78894    5851.4829   -24048.245 
  494700    -96104.54   -84430.488    283.53019    20721    221761.79    10.885217    144.82899   -67.502776    -44.67056    425.41447    23.514429    22.168689    5.3303651    430.74483    5847.6391   -24028.965 
  494800    -96059.86   -84457.294    281.79399    20721    221800.83    -46.98125   -143.93152    121.00931   -118.02155    425.29357    23.519842    22.173792    5.3908168    430.68438    5848.5217   -23999.223 
  494900   -96024.945   -84479.445    280.40803    20721    221884.25    97.082168    58.835548    278.01586   -45.604908    425.30174    23.524038    22.177748    5.3867293    430.68847    5850.2121   -23983.084 
  495000   -96034.954    -84469.75    280.88659    20721    221569.33   -35.689751   -29.184243    96.870988     -174.756     425.0685    23.513787    22.168083    5.5033523    430.57185    5858.6384   -24010.189 
  495100   -96021.039    -84454.49    280.91923    20721    221645.68    56.727908    53.194636    83.221798    33.767292    424.95392    23.521008    22.174892     5.560641    430.51456    5866.2743   -24035.226 
  495200   -95954.649   -84472.759     278.8631    20721    221784.86    101.63492    237.84119    1.1406034    65.922966    425.00979    23.526845    22.180395    5.5327063    430.54249    5888.1024   -24035.715 
  495300   -95954.154   -84490.913    278.41018    20721    221451.67    57.883988    101.60787    304.29403   -232.24994    424.84915     23.51361    22.167917    5.6130253    430.46217    5875.5056   -24016.973 
  495400    -95999.81   -84522.263    278.75763    20721    221588.44    -1.040317     102.1046    292.01206   -397.23761    425.24482    23.509925    22.164443    5.4151879    430.66001    5881.5048   -23985.322 
  495500   -95946.396   -84535.782    277.13202    20721    221584.76    3.0636508    32.326117   -30.164336    7.0291714    425.27353    23.508937    22.163511    5.4008373    430.67436    5886.3413   -23980.263 
  495600   -96120.256   -84508.014    282.02898    20721    221510.07   -69.204331   -72.853816    49.165567   -183.92475    424.93649    23.514294    22.168561    5.5693566    430.50584    5884.9949   -24005.527 
  495700   -96097.387   -84530.059    280.93815    20721    221341.43   -3.8819509    81.405988   -39.906259   -53.145581    424.69818    23.511935    22.166338    5.6885122    430.38669    5887.6885   -23996.759 
  495800   -96050.994   -84497.207    280.60929    20721    221604.66    94.287574    75.878306    82.626249    124.35817    424.55227    23.529954    22.183325    5.7614629    430.31374    5882.6894   -24022.215 
  495900   -96097.806   -84496.856    281.75475    20721    221516.61    99.968722    56.907319    105.68887    137.30998    424.41272    23.529146    22.182563    5.8312392    430.24396    5908.6259   -24053.435 
  496000   -96059.914   -84501.136    280.73051    20721    221249.52     -52.3207   -161.33326    133.89341   -129.52225    424.50606    23.512372    22.166749    5.7845717    430.29063    5905.6057   -24047.631 
  496100   -96028.941   -84485.008    280.36997    20721    221228.05    65.357844    70.681656     237.1866   -111.79472    424.64439    23.507401    22.162063    5.7154067    430.35979    5909.8885   -24077.353 
  496200    -96078.34   -84484.487    281.58238    20721    221051.18   -123.63353     29.32483   -276.30011   -123.92532    424.31605    23.507092    22.161772    5.8795726    430.19563    5901.2914   -24067.738 
  496300   -96023.374   -84491.456    280.07815    20721    221262.29    60.665966   -30.850905    129.55427    83.294534    424.74882     23.50633    22.161053    5.6631878    430.41201    5892.5646   -24057.218 
  496400   -96022.964   -84458.389    280.87131    20721    221308.21   -47.440329   -65.206877   -27.033238   -50.080871    424.62315    23.512248    22.166632    5.7260267    430.34917    5893.2372   -24083.823 
  496500   -96037.478   -84472.436    280.88265    20721    221370.31   -103.98289    9.4597085    -21.14479   -300.26359    424.33665    23.523483    22.177225    5.8692771    430.20592    5900.1482   -24073.724 
  496600   -96040.343   -84422.407    282.16729    20721       221268   -66.188113   -176.00248    84.134787   -106.69664    424.39153    23.516526    22.170666    5.8418358    430.23336     5889.497   -24121.612 
  496700   -95974.308   -84495.435    278.78985    20721    221287.38    173.14767    113.66762    491.96114   -86.185759    424.34679    23.518795    22.172805     5.864204      430.211    5885.8635    -24056.19 
  496800   -95954.522    -84432.92     279.8276    20721    221515.01    1.4033308    102.98977    132.28766   -231.06745    424.51458    23.526238    22.179822    5.7803077    430.29489    5869.2649   -24088.795 
  496900   -96037.056   -84419.985    282.14629    20721    221315.87    44.691556    254.91975   -61.794226   -59.050863    424.05832    23.528308    22.181774    6.0084382    430.06676    5874.0288   -24115.965 
  497000   -95927.383   -84431.106    279.21254    20721    221459.97    16.162528    105.54843    33.445477   -90.506323    424.08886     23.53512    22.188195    5.9931721    430.08203    5867.5325   -24093.208 
  497100   -96107.263   -84483.251    282.31484    20721    221593.44   -45.339444   -15.909221   -140.53469    20.425579    424.16589    23.540072    22.192865     5.954656    430.12054     5887.327   -24057.251 
  497200   -96015.888   -84475.253    280.28986    20721    221329.13   -48.854332    44.702522    -97.05147   -94.214047    423.93208    23.532516    22.185741    6.0715608    430.00364    5879.9726   -24068.377 
  497300   -96066.102   -84518.555    280.45772    20721    221258.24     11.19062   -142.84959    131.01648    45.404965     424.0057    23.526704    22.180262    6.0347483    430.04045    5884.2845   -24034.105 
  497400   -96043.084   -84502.194    280.29605    20721    221431.22   -131.57669   -102.94065   -199.42738   -92.362036    423.88749     23.53918    22.192024    6.0938536    429.98135    5888.6444   -24046.476 
  497500   -96037.171   -84468.561    280.96932    20721    221035.78   -95.093352   -179.33089   -118.22271    12.273539    423.29388    23.534637    22.187741    6.3906576    429.68454    5887.5508   -24095.257 
  497600   -96016.614   -84440.025    281.16309    20721    221094.54   -29.593378    66.899293   -157.38658    1.7071579    423.46817    23.532921    22.186123    6.3035145    429.77169    5868.7209    -24107.19 
  497700   -96016.212   -84459.462    280.68124    20721    221198.05    54.159798   -160.81205     112.8116    210.47984    423.23313    23.544964    22.197476    6.4210338    429.65417    5889.4839    -24106.74 
  497800   -95997.556   -84463.601    280.12764    20721    220935.05   -64.414832   -74.848329    38.941818   -157.33798    422.69913    23.545822    22.198285    6.6880375    429.38716    5875.2951   -24096.096 
  497900   -95936.973   -84431.816    279.42821    20721    220781.84    15.619131   -132.76354    351.75939   -172.13845    422.48996    23.543482    22.196079    6.7926203    429.28258    5858.7085    -24122.72 
  498000   -95943.236   -84419.617    279.87658    20721     220744.9   -32.732827    43.766443   -95.853125     -46.1118    422.95456    23.528579    22.182029    6.5603187    429.51488    5862.1029   -24136.563 
  498100   -96026.002   -84462.591    280.84305    20721    220809.34   -56.492664   -46.493103   -9.7806658   -113.20422    422.88006    23.534086    22.187221    6.5975693    429.47763    5866.7648   -24098.519 
  498200   -96031.656   -84397.752     282.5551    20721    221048.36   -105.52195   -23.155269   -410.30926    116.89869    423.11181     23.54037    22.193146    6.4816925    429.59351    5868.9881    -24156.26 
  498300   -95901.413   -84425.225    278.72462    20721    220964.47   -71.652144   -161.98252    43.680679   -96.654588    422.94936    23.540422    22.193194    6.5629191    429.51228    5854.8726   -24116.988 
  498400   -96011.098   -84452.407    280.72841    20721    220810.16   -45.407665   -41.675828    150.48103    -245.0282    422.93753     23.53253    22.185754    6.5688339    429.50637    5853.8552   -24099.523 
  498500   -96006.476   -84463.058    280.35744    20721    220744.51    123.14828    120.45017     188.6848    60.309869    422.99972    23.527302    22.180825    6.5377417    429.53746    5858.7948    -24105.13 
  498600   -95990.291   -84411.643    281.21307    20721    220745.04   -34.379404    30.418832    63.057009   -196.61405    423.02512    23.526624    22.180186    6.5250379    429.55016    5830.4968   -24120.173 
  498700   -95864.066   -84400.067    278.42858    20721    220564.94    39.817613   -87.811554   -79.783254    287.04765    422.90769    23.520289    22.174214    6.5837537    429.49145    5826.4027   -24138.626 
  498800   -96023.203   -84450.256    281.07465    20721    220570.26   -60.075342   -151.22046    -25.33172   -3.6738476    422.88532    23.521195    22.175068    6.5949379    429.48026    5853.8152   -24111.858 
  498900   -95952.498   -84414.905    280.21599    20721    220656.71    16.169248    108.47356   -126.01307     66.04725    422.97233    23.523384    22.177132    6.5514346    429.52377     5841.013   -24137.504 
  499000   -96044.333   -84462.877    281.28128    20721    220394.92    13.503875    43.246043    15.226841    -17.96126    422.75148    23.515566    22.169761    6.6618587    429.41334     5845.098    -24103.68 
  499100    -96041.05   -84434.654      281.887    20721    220716.33   -37.955456   -46.976978    102.83089   -169.72028    422.77522    23.532046    22.185297    6.6499879    429.42521    5838.8514    -24113.86 
  499200   -95960.276   -84441.363    279.76231    20721    220879.32    23.851116    135.59603    69.487702   -133.53038    423.15669     23.53012    22.183482     6.459257    429.61594    5836.4986   -24101.614 
  499300   -95920.721   -84375.515    280.40089    20721    220643.34    14.902882    12.416307    83.311584   -51.019244    423.44045    23.509666    22.164198    6.3173741    429.75783    5846.0969   -24185.923 
  499400    -95845.42   -84356.583    279.03184    20721     220816.4   -7.8814483   -166.19461   -16.327849    158.87812    423.19338    23.525748     22.17936    6.4409112    429.63429    5844.7022   -24197.807 
  499500   -95982.655   -84377.676    281.85261    20721    220700.04   -45.083365   -86.018675   -58.949556     9.718137    422.92197    23.527094    22.180629    6.5766131    429.49859    5864.3383   -24201.353 
  499600   -95860.393   -84384.616    278.71465    20721    220514.58    30.306504    53.507553   -304.05573    341.46769    423.10456    23.512132    22.166524    6.4853187    429.58988    5866.8152   -24207.407 
  499700   -95833.006   -84385.195    278.03543    20721     220831.4    52.104934    38.496331   -92.346418    210.16489    422.92026    23.534143    22.187274    6.5774709    429.49773    5850.8186   -24181.767 
  499800   -95964.094   -84438.912    279.91455    20721    220718.31    114.67854    347.83953    62.813624   -66.617544     422.5632    23.538054    22.190962    6.7559984     429.3192    5873.6202    -24160.69 
  499900   -96087.398   -84413.394    283.52901    20721    220907.85   -71.125806   -26.647522   -78.121539   -108.60836    422.93143    23.537905    22.190821    6.5718832    429.50332    5888.3402   -24187.998 
  500000   -95839.328   -84387.614    278.13022    20721    220961.35    29.331117    -168.7627    174.56355    82.192498    422.74954    23.545819    22.198283     6.662831    429.41237    5857.4886   -24186.519 
Loop time of 71041.9 on 32 procs for 500000 steps with 20721 atoms

Performance: 1.216 ns/day, 19.734 hours/ns, 7.038 timesteps/s
97.4% CPU use with 32 MPI tasks x no OpenMP threads

MPI task timing breakdown:
Section |  min time  |  avg time  |  max time  |%varavg| %total
---------------------------------------------------------------
Pair    | 13492      | 14602      | 16606      | 815.8 | 20.55
Bond    | 0.79153    | 0.86954    | 1.2328     |   9.2 |  0.00
Kspace  | 13123      | 15132      | 16241      | 802.9 | 21.30
Neigh   | 10597      | 12821      | 14735      |1567.9 | 18.05
Comm    | 457.15     | 1805.1     | 4052.1     |2713.2 |  2.54
Output  | 7.7167     | 32.419     | 42.944     | 207.3 |  0.05
Modify  | 25250      | 26564      | 29640      | 898.6 | 37.39
Other   |            | 84.57      |            |       |  0.12

Nlocal:    647.531 ave 719 max 599 min
Histogram: 4 2 6 9 0 2 3 4 1 1
Nghost:    7438.22 ave 7991 max 7058 min
Histogram: 4 3 8 4 1 1 7 1 1 2
Neighs:    238468 ave 288979 max 215215 min
Histogram: 7 10 4 0 1 3 3 2 1 1
FullNghs:  476935 ave 579834 max 424962 min
Histogram: 6 9 6 0 0 3 5 1 1 1

Total # of neighbors = 15261919
Ave neighs/atom = 736.544
Ave special neighs/atom = 2
Neighbor list builds = 500000
Dangerous builds not checked
write_data production.R1
PPPM initialization ...
  extracting TIP4P info from pair style
WARNING: Using 12-bit tables for long-range coulomb (../kspace.cpp:316)
  G vector (1/distance) = 0.345923
  grid = 400 48 48
  stencil order = 5
  estimated absolute RMS force accuracy = 0.000401492
  estimated relative force accuracy = 1.20908e-06
  using double precision FFTs
  3d grid and FFT values/proc = 67260 38400
write_restart restartproduction.R1
PPPM initialization ...
  extracting TIP4P info from pair style
WARNING: Using 12-bit tables for long-range coulomb (../kspace.cpp:316)
  G vector (1/distance) = 0.345923
  grid = 400 48 48
  stencil order = 5
  estimated absolute RMS force accuracy = 0.000401492
  estimated relative force accuracy = 1.20908e-06
  using double precision FFTs
  3d grid and FFT values/proc = 67260 38400
Total wall time: 19:44:02
