LAMMPS (30 Jul 2016)
# Sets up LAMMPS simulation for transient melting of ice: TIP4P/Ice
# Ensure cold thermostats do not move
# Thinbox: 16x1x1
# Defects
# Order param l=2

#### setting MD parameters ####
units real
boundary p p p
atom_style full

# read ice box in restart file
#read_data ice-ih-restart.data
read_restart restart.state
  orthogonal box = (0.341917 0.0184503 0.0173944) to (435.733 23.5127 22.1671)
  32 by 1 by 1 MPI processor grid
  20736 atoms
  13824 bonds
  6912 angles
  2 = max # of 1-2 neighbors
  1 = max # of 1-3 neighbors
  1 = max # of 1-4 neighbors
  2 = max # of special neighbors

#replicate 16 boxes, 16x1x1


#### force field definition ####
pair_style      lj/cut/tip4p/long 2 1 1 1 0.1577 10.0
pair_modify	tail yes

kspace_style	pppm/tip4p 1.0e-6

bond_style	harmonic
angle_style	harmonic
dihedral_style	none
improper_style	none

bond_coeff	1 450.0 0.9572
angle_coeff	1 55.0 104.52


# reset pair coeff
pair_coeff	* * 0.0 0.0

#OO
pair_coeff	2 2 0.21085 3.1668
#OH
pair_coeff	* 1 0.0000 0.0000

neighbor        2.0 bin
neigh_modify    every 1 delay 1 check no

timestep	2.0
fix		constraints all shake 0.000001 20 0 b 1 a 1
  0 = # of size 2 clusters
  0 = # of size 3 clusters
  0 = # of size 4 clusters
  6912 = # of frozen angles

group water type 1 2
20736 atoms in group water

#*********** SIMULATION PARAMETER TO ADJUST ****************
#Box dimensions
variable lx equal lx
variable ly equal ly
variable lz equal lz

### Temperature of the hot and cold regions ####
variable thi equal 375
variable tlo equal 215
variable runpressure equal 0.986923
# Configuration equilibrated in density and temperature

# Define dx here

variable lx equal lx
variable ly equal ly
variable lz equal lz

variable xlo equal xlo
variable xhi equal xhi


variable dx equal 2.0

### ADD IN DEFECTS AT THE CENTRE OF THE HOT THERMOSTAT ###
variable x1 equal ${lx}/4.0
variable x1 equal 435.391366026747/4.0
variable y1 equal ${ly}/2.0
variable y1 equal 23.4942994058088/2.0
variable z1 equal ${lz}/2.0
variable z1 equal 22.1497112415936/2.0

region kill1 sphere ${x1} ${y1} ${z1} 3
region kill1 sphere 108.847841506687 ${y1} ${z1} 3
region kill1 sphere 108.847841506687 11.7471497029044 ${z1} 3
region kill1 sphere 108.847841506687 11.7471497029044 11.0748556207968 3
delete_atoms region kill1 compress no bond yes mol yes
Deleted 12 atoms, new total = 20724
Deleted 8 bonds, new total = 13816
Deleted 4 angles, new total = 6908




variable thip equal ${thi}*2.0/3.0
variable thip equal 375*2.0/3.0
variable tlop equal ${tlo}*2.0/3.0
variable tlop equal 215*2.0/3.0
variable cbl equal ${lx}*3.0/4.0-${dx}
variable cbl equal 435.391366026747*3.0/4.0-${dx}
variable cbl equal 435.391366026747*3.0/4.0-2
variable cbh equal ${lx}*3.0/4.0+${dx}
variable cbh equal 435.391366026747*3.0/4.0+${dx}
variable cbh equal 435.391366026747*3.0/4.0+2
variable hbl equal ${lx}*1.0/4.0-${dx}
variable hbl equal 435.391366026747*1.0/4.0-${dx}
variable hbl equal 435.391366026747*1.0/4.0-2
variable hbh equal ${lx}*1.0/4.0+${dx}
variable hbh equal 435.391366026747*1.0/4.0+${dx}
variable hbh equal 435.391366026747*1.0/4.0+2


#***************************************************
## EQUILIBRATION PERIOD - to reach the steady state ###
#run 0

#reset the timestep to start your production run
reset_timestep 0

# define a group to perform averages
#group s1 type 1
###*** SYSTEM THERMOSTATTING: HOT and COLD regions ***###

fix NVE all nve
fix PRESS all press/berendsen aniso ${runpressure} ${runpressure} 500000 couple yz
fix PRESS all press/berendsen aniso 0.986923 ${runpressure} 500000 couple yz
fix PRESS all press/berendsen aniso 0.986923 0.986923 500000 couple yz


### Apply THERMOSTATS ###

#set up the "hot region" in the middle of the box
region hot block ${hbl} ${hbh} 0 ${ly} 0 ${lz} units box
region hot block 106.847841506687 ${hbh} 0 ${ly} 0 ${lz} units box
region hot block 106.847841506687 110.847841506687 0 ${ly} 0 ${lz} units box
region hot block 106.847841506687 110.847841506687 0 23.4942994058088 0 ${lz} units box
region hot block 106.847841506687 110.847841506687 0 23.4942994058088 0 22.1497112415936 units box


#set up the "cold region" at the left end of the box
region cold block ${cbl} ${cbh} 0 ${ly} 0 ${lz} units box
region cold block 324.54352452006 ${cbh} 0 ${ly} 0 ${lz} units box
region cold block 324.54352452006 328.54352452006 0 ${ly} 0 ${lz} units box
region cold block 324.54352452006 328.54352452006 0 23.4942994058088 0 ${lz} units box
region cold block 324.54352452006 328.54352452006 0 23.4942994058088 0 22.1497112415936 units box

#set up the "cold region" at the right end of the box
#region cold2 block ${h2bl} ${xhi} 0 ${ly} 0 ${lz} units box


#Cold regions  unification
#region cold union 2 cold1 cold2 units box

#Create group of cold molecules
####group cool_ice region cold
####group cool_ice include molecule

####compute cold_temp cool_ice temp
####fix cold_rescale water temp/rescale 1 ${tlo} ${tlo} 0.0001 1.0
####fix_modify cold_rescale temp cold_temp

#this calculates the temperature using only the atoms in the "hot region"
#compute hot_temp all temp/region hot

# calculate the temperature using only WATER in the "hot region"
compute hot_temp water temp/region hot

#this calculates the temperature using only WATER in the "cold region"
compute cold_temp water temp/region cold


#set up a basic velocity rescale for the hot region WATER with thip
fix hot_rescale water temp/rescale 1 ${thip} ${thip} 1.0 1.0
fix hot_rescale water temp/rescale 1 250 ${thip} 1.0 1.0
fix hot_rescale water temp/rescale 1 250 250 1.0 1.0
#change the thermostat to only act on the "hot region"
#this is done by passing it the "hot temp" compute that we defined above
fix_modify hot_rescale temp hot_temp

#set up a basic velocity rescale for the cold region
fix cold_rescale water temp/rescale 1 ${tlop} ${tlop} 1.0 1.0
fix cold_rescale water temp/rescale 1 143.333333333333 ${tlop} 1.0 1.0
fix cold_rescale water temp/rescale 1 143.333333333333 143.333333333333 1.0 1.0
#change the thermostat to only act on the "cold region"
#this is done by passing it the "cold temp" compute that we defined above
fix_modify cold_rescale temp cold_temp

### Ensure MOMENTUM CONSERVATION ###

#ensure that linear momentum is conserved despite the "thermostatting" by velocity rescaling
fix cons_mom all momentum 1 linear 1 1 1


thermo 100
thermo_style custom step pe etotal temp atoms vol press pxx pyy pzz lx ly lz xlo xhi f_cold_rescale f_hot_rescale

group ox type 2
6908 atoms in group ox
group hy type 1
13816 atoms in group hy
compute KE all ke/atom
variable TEMP atom c_KE*4186.8/(1.3806488*6.02214129)

compute cc1 all chunk/atom bin/1d x center 2 units box
#fix TPROFILE all ave/chunk 1 500 500 cc1 v_TEMP density/number file temp.dat
fix TPROFILEox ox ave/chunk 1 500 500 cc1 v_TEMP density/number file temp-ox.dat
fix TPROFILEhy hy ave/chunk 1 500 500 cc1 v_TEMP density/number file temp-hy.dat

compute orderparam ox orientorder/atom degrees 1 2 nnn 4 cutoff 3.5
compute cc2 ox chunk/atom bin/1d x center 2 units box
#fix ORDERPARAM all ave/chunk 1 500 500 cc2 c_orderparam[1] file order-param.dat
fix ORDERPARAM all ave/chunk 1 500 500 cc2 c_orderparam[1] file order-param.dat

restart 50000 config.restart

run 500000
PPPM initialization ...
  extracting TIP4P info from pair style
WARNING: Using 12-bit tables for long-range coulomb (../kspace.cpp:316)
  G vector (1/distance) = 0.345575
  grid = 405 48 48
  stencil order = 5
  estimated absolute RMS force accuracy = 0.000406447
  estimated relative force accuracy = 1.224e-06
  using double precision FFTs
  3d grid and FFT values/proc = 67260 38880
Neighbor list info ...
  2 neighbor list requests
  update every 1 steps, delay 1 steps, check no
  max neighbors/atom: 2000, page size: 100000
  master list distance cutoff = 12.3154
  ghost atom cutoff = 12.3154
  binsize = 6.1577 -> bins = 71 4 4
Memory usage per processor = 12.7952 Mbytes
Step PotEng TotEng Temp Atoms Volume Press Pxx Pyy Pzz Lx Ly Lz Xlo Xhi cold_res hot_resc 
       0   -103793.64   -94958.693    214.54523    20724    226574.16   -191.37378   -279.95777   -73.838503   -220.32506    435.39137    23.494299    22.149711   0.34191699    435.73328            0            0 
     100   -103628.23   -94697.947    216.86025    20724    226404.33   -25.174141    4.9509991     -100.089    19.615583    435.33868    23.486914    22.142748   0.36826006    435.70694    9.6370802   -275.99505 
     200   -103605.93   -94667.188    217.06559    20724    226268.88   0.79629414   -56.558038    67.778392   -8.8314707     435.0959    23.486437    22.142299   0.48964839    435.58555    20.198362   -322.22645 
     300   -103611.26    -94605.57    218.69155    20724    226320.88   -81.040062   -32.293051    85.966018   -296.79315    434.98968    23.492003    22.147546   0.54275766    435.53244    24.068404   -381.12714 
     400   -103542.99   -94587.371    217.47562    20724    226373.72   -28.947307    23.238313   -75.684523    -34.39571    435.11445    23.491377    22.146956   0.48037635    435.59482    34.172616   -411.84856 
     500   -103724.66   -94581.111    222.03924    20724    226401.88   -115.79291   -167.44682   -223.23037    43.298471    435.16534    23.491464    22.147038   0.45493098    435.62027    25.815832   -407.67593 
     600   -103571.47   -94497.456    220.35059    20724    226506.94     46.62284    41.750126   -72.357495    170.47589    435.37235    23.491327    22.146909   0.35142535    435.72377   -7.0403592   -463.49134 
     700    -103428.3    -94445.01    218.14741    20724    226320.61    -60.38382   -44.983294   -235.90762    99.739452     435.0953    23.489137    22.144845    0.4899518    435.58525    10.902568   -532.69643 
     800   -103463.27   -94409.687     219.8545    20724    226483.45    30.108241   -21.308575    146.00279   -34.369494    435.23628     23.49378    22.149222    0.4194624    435.65574    3.1626301   -562.85258 
     900   -103428.99   -94382.709     219.6772    20724    226389.18   -24.445158   -49.743677   -12.757992   -10.833804    435.09934    23.492587    22.148096   0.48793124    435.58727    1.3246642   -588.16252 
    1000   -103437.07   -94353.041    220.59374    20724    226517.99    137.36918    90.711126    201.07442    120.32199    435.20742    23.496351    22.151645   0.43389016    435.64131    17.111686   -640.03793 
    1100   -103378.07   -94335.268    219.59264    20724    226433.69    6.5991142    60.522966    32.970327   -73.695951    435.13939    23.493815    22.149254   0.46790524    435.60729    23.647187   -660.17718 
    1200   -103369.32   -94305.012    220.11491    20724    226487.17    76.217289   -134.49995    145.69999    217.45183    435.29875    23.492287    22.147814   0.38822295    435.68698    6.7331689   -675.76511 
    1300   -103385.36   -94244.491    221.97404    20724    226582.44    25.225694    109.25589   -15.425068   -18.153741    435.28194    23.497682      22.1529   0.39663056    435.67857    11.906969   -737.93199 
    1400   -103391.14   -94301.117    220.73933    20724     226449.7    75.772145    110.88808   -3.0220782    119.45043    435.53047    23.484094     22.14009   0.27236313    435.80284     39.35344   -716.19251 
    1500   -103368.88   -94162.305    223.56973    20724    226556.29   -28.067333   -98.830804   -146.65197    161.28078    435.37334    23.493859    22.149296   0.35093054    435.72427    11.343205   -819.43243 
    1600   -103321.56   -94150.704     222.7023    20724    226602.66    66.500355    166.69389   -3.7517316    36.558904    435.48156    23.493343     22.14881      0.29682    435.77838    11.382223   -832.71148 
    1700   -103333.74   -94158.207    222.81584    20724    226464.01   -24.064564   -266.40999     98.39106    95.825237    435.39323    23.488538    22.144279   0.34098337    435.73422    17.762188   -834.20919 
    1800    -103306.8   -94121.312     223.0577    20724    226514.15   0.82670721    102.99715   -101.68544    1.1684108     435.2896    23.493934    22.149366    0.3927988     435.6824   -7.7060064   -847.34647 
    1900   -103290.72   -94109.806    222.94663    20724     226590.3   -18.878653    71.720826   -235.14008    106.78329    435.51953    23.491679    22.147241   0.27783341    435.79737   -5.3873936     -857.627 
    2000   -103243.63   -94060.547    222.99919    20724    226597.02    59.199379   -25.423666    38.459743    164.56206    435.38168    23.495746    22.151075   0.34675837    435.72844   -5.1130443   -912.14338 
    2100   -103303.07   -94075.769    224.07297    20724    226541.49  -0.83056672    -127.3783      137.034   -12.147405    435.19114    23.498009    22.153209   0.44202944    435.63317   -2.0358924   -899.25303 
    2200    -103225.9    -94003.07     223.9643    20724    226507.63    5.7490618   -270.41036    234.50539    53.152158    435.16882    23.496856    22.152121   0.45318929    435.62201   -7.6941425   -970.11235 
    2300   -103164.01   -94015.855    222.15108    20724    226817.86    77.740478    77.281675    210.48501   -54.545248    435.51391    23.503623    22.158502   0.28064487    435.79456    12.625713   -973.88498 
    2400   -103169.04   -94006.802    222.49308    20724    226622.66    38.532006    96.143239   -303.56111    323.01389    435.25656    23.500452    22.155512   0.40931972    435.66588    -3.897261   -970.40064 
    2500   -103212.44   -94001.187    223.68324    20724    226542.11    27.528368    131.52235   -136.77665    87.839405    435.18818    23.498121    22.153315   0.44351122    435.63169    5.5068621   -989.35162 
    2600   -103202.81   -93960.578    224.43556    20724    226554.03   -111.76001   -194.05447   -67.987248   -73.238308     435.1329    23.500232    22.155304   0.47115121    435.60405    12.945597   -1031.7305 
    2700   -103253.03   -93917.242    226.70747    20724    226568.02     14.62073    111.96648   -178.02067    109.91637    435.17332    23.499866    22.154959   0.45093852    435.62426   -5.8011369    -1062.095 
    2800    -103139.4   -93899.549    224.37776    20724    226616.11    83.755331    44.691756   -84.699535    291.27377    435.32912    23.498154    22.153345   0.37304129    435.70216    2.7885311   -1091.2672 
    2900   -103162.63   -93900.427    224.92048    20724    226503.59   -90.310097   -293.15403    64.357511    -42.13377    435.24272    23.494651    22.150043   0.41623774    435.65896   -2.5003603   -1082.1055 
    3000   -103196.93    -93894.87    225.88848    20724     226709.3    60.376592    28.954953    208.41424   -56.239418    435.11164    23.508858    22.163436   0.48177818    435.59342   -6.9435011      -1086.4 
    3100   -103105.43   -93861.907    224.46703    20724    226599.56    50.715394    31.511806    181.50401   -60.869633    435.21169    23.500466    22.155525   0.43175713    435.64344    9.3054676   -1138.6392 
    3200   -103135.23   -93840.709    225.70542    20724    226699.71   -19.993148    66.820683    35.593782   -162.39391     435.4846    23.498292    22.153475   0.29530173     435.7799    7.3771971   -1153.1152 
    3300   -103209.48   -93838.981     227.5503    20724    226787.41    11.033101    120.91429    237.11576   -324.93075    435.48835    23.502735    22.157664   0.29342256    435.78178    30.972245   -1180.9546 
    3400   -103117.94   -93744.381    227.62466    20724    226771.95    -30.25505    38.243165   -99.966712   -29.041605    435.32157    23.506436    22.161153   0.37681276    435.69839      1.22036    -1242.528 
    3500   -103049.65   -93752.117    225.77835    20724    226594.07   -16.509784   -102.91045    88.737558   -35.356461    435.41655    23.494652    22.150044   0.32932592    435.74587    12.578647   -1252.2193 
    3600    -103118.3   -93728.766    228.01265    20724    226941.02    60.690449    -113.3295    178.41565    116.98519    435.52264    23.509768    22.164295   0.27628071    435.79892   -11.867127   -1247.3474 
    3700   -103050.99   -93747.781    225.91628    20724    226558.19   -20.465729   -51.764706   -309.00238     299.3699    435.25196    23.497233    22.152477   0.41162148    435.66358    3.8565099   -1250.0088 
    3800   -103158.86   -93752.928    228.41069    20724    226662.36   0.65521211   -181.23981    11.824094    171.38135    435.31583    23.500911    22.155944    0.3796846    435.69552    6.3876447    -1248.087 
    3900    -103052.5   -93735.727    226.24559    20724    226733.17    57.854206   -113.44157    206.79687    80.207315    435.33633    23.504027    22.158882   0.36943347    435.70577    1.0134528   -1261.3344 
    4000      -102981   -93685.756    225.72292    20724       226716    5.8382383    97.495876    313.16248   -393.14364    435.48739    23.499061      22.1542   0.29390447     435.7813    6.1678016   -1315.0628 
    4100    -103092.7   -93661.051    229.03533    20724    226771.01   -31.751125   -4.2830958    1.0376456   -92.007926    435.45088    23.502897    22.157817   0.31216192    435.76304     8.174644   -1339.6013 
    4200   -103097.75   -93665.365    229.05315    20724    226702.87   -33.613863    167.18912   -247.97193   -20.058775    435.33824    23.502406    22.157354   0.36847986    435.70672    2.1106095    -1332.712 
    4300   -103050.42   -93656.195    228.12646    20724     226863.6    38.930703   -52.439045    225.32283    -56.09168    435.38357    23.509512    22.164053   0.34581299    435.72939    18.281609   -1358.1844 
    4400   -102977.92   -93627.455    227.06394    20724    226615.67   -28.557417   -22.228135   -284.83987    221.39575    435.08217    23.504799     22.15961   0.49651507    435.57868    19.713038   -1391.3193 
    4500   -103048.01    -93601.51    229.39591    20724    226661.15    92.615994    63.939225   -28.512481    242.42124    435.14131     23.50556    22.160327    0.4669448    435.60826    2.2408449    -1406.164 
    4600   -102968.78    -93610.02    227.26532    20724    226721.42      67.3795    139.51171   -11.234342    73.861131    435.39416    23.501858    22.156837   0.34051958    435.73468    6.7384129   -1401.2432 
    4700   -103043.27   -93576.377    229.89116    20724     226906.5   -32.727226   -169.25443   -57.021205    128.09396    435.41254    23.510952    22.165411   0.33133111    435.74387   -18.103096   -1400.3357 
    4800   -103062.63   -93564.201    230.65689    20724    226742.89   -54.646247   -129.85752   -123.55755    89.476334    435.17876    23.508786    22.163369    0.4482209    435.62698   -17.598516   -1416.9819 
    4900   -103001.73   -93542.416    229.70712    20724    226807.09    39.804145    97.960804    -14.67141    36.123041    435.33307    23.507946    22.162577   0.37106399    435.70414   -35.375852   -1425.8105 
    5000   -103035.84   -93526.314    230.92637    20724    226962.23   -69.726022    62.361506   -122.90253   -148.63704    435.51564    23.511055    22.165508   0.27977761    435.79542   -12.585904   -1455.6751 
    5100   -102955.01   -93522.369    229.05948    20724    226822.57   -8.7548055   -67.198736   -160.90722    201.84154     435.4303    23.506124    22.160859   0.32245163    435.75275    1.6061552   -1482.1904 
    5200   -103006.55   -93484.052    231.24151    20724    226903.02    -32.54084     56.05228   -186.73151    33.056714    435.48017    23.508946     22.16352    0.2975149    435.77769   -16.849214   -1499.2058 
    5300   -102875.49   -93547.135    226.52705    20724    226768.71    61.025418     32.81406    -133.8187     284.0809    435.49265    23.501651    22.156642   0.29127688    435.78392   -3.6914807   -1458.5727 
    5400   -102921.75   -93486.244    229.12885    20724    226942.51  -0.87070506    34.265093   -129.60335    92.726138    435.48093    23.510971    22.165429   0.29713534    435.77806   -21.167156   -1495.8945 
    5500    -103009.8    -93530.75    230.18633    20724    226803.25   -74.173343    189.03161   -113.84856   -297.70308    435.70896    23.497606    22.152828   0.18311859    435.89208   -31.342496   -1443.2073 
    5600   -102928.91   -93526.986    228.31355    20724    226860.11    16.477551   -66.964313    414.66024   -298.26328    435.56064    23.504551    22.159376   0.25727838    435.81792   -7.2008585    -1474.723 
    5700   -102932.87   -93511.481    228.78626    20724    226915.01   -84.754926   -73.117237   -36.479401   -144.66814    435.45345    23.510288    22.164785   0.31087252    435.76433   -11.508994   -1478.8406 
    5800   -102930.81   -93449.419    230.24332    20724    226851.47     27.25009   0.13341289      24.2188    57.398055    435.68916    23.500637    22.155686   0.19302221    435.88218   -30.477602   -1531.0846 
    5900   -102960.36   -93469.288    230.47828    20724    226837.22   -37.770158    64.677857    31.787643   -209.77597    435.39786    23.507759    22.162401   0.33867215    435.73653    -10.18941   -1529.4179 
    6000   -102875.06   -93432.662    229.29639    20724    226922.21    45.092738    54.382565    170.30118   -89.405533    435.50534    23.509261    22.163817     0.284931    435.79027   -18.758126   -1557.9557 
    6100   -102849.06   -93415.143    229.09047    20724    226885.72   -62.048645   -69.802417    22.280412   -138.62393    435.57894    23.505385    22.160162   0.24812977    435.82707   -15.235761   -1576.5741 
    6200   -102913.84   -93431.241    230.27244    20724    226826.55   -24.189784    -113.4752   -59.425184    100.33103    435.40311    23.507065    22.161746   0.33604745    435.73915    9.2128044   -1591.2475 
    6300   -102936.62    -93425.46    230.96624    20724     226815.4    -24.74253    80.582004   -208.99652    54.186931     435.5015    23.503831    22.158698   0.28684941    435.78835      8.08112   -1595.9854 
    6400    -102927.6   -93438.202    230.43765    20724    226965.81    20.316313   -3.4366025   -175.87054    240.25608    435.85921    23.501973    22.156946   0.10799379    435.96721    10.412102   -1584.9013 
    6500   -102857.09   -93420.917    229.14524    20724    226887.03    77.392901    166.19007    245.24838   -179.25975    435.51076    23.507292     22.16196   0.28221905    435.79298    5.9327293   -1602.8345 
    6600    -102863.5   -93366.014    230.63419    20724    226970.64   -29.380902   -103.46925    128.32827   -113.00172    435.67528    23.507183    22.161858   0.19995871    435.87524    29.446098   -1675.5863 
    6700   -102890.22   -93391.716    230.65885    20724    226868.93    49.195196    233.19433   -143.12133    57.512586    435.81156    23.498241    22.153427   0.13181969    435.94338    1.1530143   -1628.9974 
    6800   -102923.57   -93362.649    232.17453    20724    226855.69   -115.68476   -58.554817   -322.91706    34.417595    435.75844    23.498987    22.154131   0.15837936    435.91682   -13.430871   -1637.8101 
    6900   -102930.13   -93335.498     232.9932    20724    226930.69   -84.125621     14.00333   -285.43872    19.058522      435.698    23.504502     22.15933   0.18859874     435.8866   -12.298614    -1664.888 
    7000   -102863.73   -93356.376    230.87377    20724    226804.71    24.416184   -68.761598    31.490565    110.51959    435.54166    23.502194    22.157154    0.2667702    435.80843   -3.6828876   -1663.3238 
    7100   -102846.59   -93280.816    232.29228    20724    226925.27   -50.058229    30.974404    203.13005   -384.27914    435.82866    23.500697    22.155743   0.12326797    435.95193   -20.522209   -1714.3091 
    7200   -102813.24   -93296.384    231.10441    20724    226778.17     6.072673   -178.04358    308.29514   -112.03354    435.77525    23.494519    22.149918   0.14997301    435.92523   -12.313331   -1715.8377 
    7300   -102768.91   -93203.077    232.29388    20724    226723.83    7.4383645   -113.20536   -137.90737    273.42782    435.43699    23.500827    22.155865   0.31910687    435.75609   -23.922004   -1797.6689 
    7400   -102707.07   -93227.498    230.19917    20724    226681.86      48.2042    197.01738    22.553272   -74.958056    435.63086    23.493422    22.148884   0.22216989    435.85303   -17.533057   -1784.2555 
    7500   -102889.35   -93184.922    235.65935    20724    226697.76   -75.530881   -49.884869    -173.7168   -2.9909708    435.64384    23.493896    22.149331   0.21568183    435.85952   -25.491348   -1816.4522 
    7600   -102856.37   -93149.742    235.71293    20724    226836.96   -25.790059    -13.14177    142.33667   -206.56508    435.55128    23.503605    22.158484   0.26195834    435.81324   -38.233423   -1838.2285 
    7700   -102800.83   -93170.683    233.85548    20724    226568.86   -13.496416    45.606221     30.52125   -116.61672    435.45547    23.492295    22.147822   0.30986619    435.76533   -20.373848   -1842.6299 
    7800   -102807.78   -93172.572    233.97847    20724    226793.48    87.196008    73.513556    56.643618    131.43085    435.49428     23.50289    22.157811   0.29046159    435.78474    -25.09848    -1836.598 
    7900   -102831.02   -93163.416    234.76521    20724    226775.52   -18.790286   -169.14922     18.63189    94.146473    435.54708    23.500535     22.15559    0.2640585    435.81114   -15.246064   -1851.9893 
    8000   -102718.93   -93163.426    232.04285    20724    226737.91    44.318893   -11.989409    163.41022   -18.464129    435.52589    23.499158    22.154292   0.27465577    435.80054   -26.039073   -1844.7724 
    8100   -102722.77   -93133.523    232.86229    20724    226751.29   -12.111353    67.749838   -35.111603   -68.972294    435.50699    23.500361    22.155426   0.28410509    435.79109   -19.207073   -1879.4814 
    8200   -102746.43   -93160.272    232.78726    20724    226710.06   -1.5103797     40.97147   -141.93398    96.431369    435.49088    23.498659    22.153821   0.29215932    435.78304   -10.675656   -1863.6466 
    8300   -102722.54   -93174.936    231.85112    20724    226804.41   -42.095609   -314.40132   -168.58547    356.69996    435.38705    23.506351    22.161073   0.34407497    435.73113    14.972145    -1870.455 
    8400    -102751.9   -93140.265    233.40613    20724    226829.94   -19.683721   -105.90403   -148.16708    195.01995    435.72848    23.498462    22.153635   0.17335888    435.90184   -10.430722   -1882.5127 
    8500   -102767.71   -93062.055    235.68912    20724    226756.29    34.345836    47.497654    35.473099    20.066755    435.55726    23.499264    22.154391    0.2589675    435.81623   -49.487557   -1927.4437 
    8600    -102741.2   -93124.255    233.53493    20724    226665.36    5.5183862    -178.7547    207.57789   -12.268023    435.26179    23.502525    22.157466   0.40670706    435.66849   -6.9764514    -1910.536 
    8700   -102716.14   -93060.353    234.47824    20724    226810.93    36.142649     6.254018    244.86218   -142.68825    435.50463    23.503515      22.1584   0.28528488    435.78992   -20.845609   -1958.2389 
    8800   -102732.23   -93068.269    234.67674    20724       226774    11.209086    87.783865   -232.97684    178.82024    435.59466    23.499173    22.154306   0.24027223    435.83493   -32.405213   -1943.1561 
    8900    -102637.7   -93043.757    232.97652    20724    226854.29    48.148727     72.08598   -26.508321    98.868522    435.43559    23.507625    22.162274   0.31980475     435.7554   -41.978059   -1955.0784 
    9000   -102647.79   -93044.952    233.19233    20724    226865.82    40.634361    -63.93512    118.17223    67.665972    435.68933    23.501376    22.156383   0.19293508    435.88226   -60.591907   -1935.7645 
    9100   -102756.09   -93044.746    235.82739    20724    226881.51  -0.66259091    86.303175    47.858714   -136.14966    435.83874    23.498159     22.15335   0.11822753    435.95697   -43.298172   -1952.6521 
    9200   -102621.38   -93031.021    232.88936    20724    226940.69   -37.347625   -55.308997    78.100738   -134.83462    435.70525    23.504824    22.159633    0.1849726    435.89023   -41.619283   -1964.3997 
    9300   -102733.86   -93009.062    236.15393    20724    226952.78   -105.17989     137.1018   -240.62241   -212.01906    435.62528    23.507607    22.162258   0.22495975    435.85024   -48.162705   -1978.5317 
    9400   -102716.27   -93046.799    234.81055    20724    226829.04   -7.5350823    95.952884   -44.871397   -73.686734    435.42819    23.506516    22.161229   0.32350428     435.7517    -26.14376   -1973.3648 
    9500   -102695.24    -93064.74    233.86425    20724    226782.68    79.335069    65.943061    240.93716   -68.875013    435.51833    23.501682    22.156671   0.27843276    435.79677   -46.778326   -1940.0079 
    9600   -102632.95   -93028.647    233.22803    20724    226763.24    1.8880361   -181.99816    55.424365    132.23791    435.56119    23.499518    22.154631   0.25700566    435.81819   -47.087201   -1972.3368 
    9700   -102665.72   -93009.335    234.49265    20724    226992.74      75.1163   -130.19927    189.02504    166.52314    435.32706    23.517728    22.171799    0.3740704    435.70113   -40.263717   -1997.9428 
    9800   -102716.06    -93038.11     235.0164    20724    226971.71   -96.653053   -175.24537    93.070152   -207.78394    435.56931    23.510098    22.164606   0.25294616    435.82225   -28.478315   -1974.8763 
    9900   -102663.74    -93018.18    234.22982    20724     226949.1   -27.030846   -74.192218    51.773892   -58.674212    435.64055    23.507005     22.16169   0.21732702    435.85787   -30.583058   -1996.6978 
   10000   -102634.61   -92976.943    234.52382    20724    226864.34    47.404945    65.001528     67.78944    9.4238684    435.53845     23.50537    22.160148   0.26837574    435.80682   -44.800933   -2031.6247 
   10100   -102674.24   -92968.059    235.70206    20724    226885.38   -36.962898    130.57434   -214.87868    -26.58435    435.60717    23.504605    22.159427    0.2340139    435.84119   -30.183843   -2052.7433 
   10200   -102448.94   -92908.486    231.67754    20724    226873.07     87.45244    -60.34884    155.57743    167.12873    435.66618    23.502376    22.157325    0.2045077    435.87069   -54.515175   -2091.6941 
   10300   -102503.09   -92881.267    233.65342    20724    226737.82    33.191251    277.28598   -101.92664   -75.785582    435.40955    23.502292    22.157247   0.33282613    435.74237   -69.549514   -2106.3609 
   10400   -102600.45   -92882.496    235.98783    20724    226854.78   -19.715429    41.546407   -252.10922    151.41653    435.33781     23.51029    22.164787   0.36869415    435.70651   -52.568651    -2118.858 
   10500   -102541.31   -92877.707    234.66805    20724     226842.5   -6.8025613    -177.1124    253.22385   -96.519137     435.4528    23.506549     22.16126   0.31119795      435.764   -50.805495   -2126.8241 
   10600   -102651.35   -92823.597    238.65427    20724    226808.06    -42.10025   -75.586076    75.860407   -126.57508    435.47387    23.504196    22.159042   0.30066436    435.77454   -59.858341   -2174.9346 
   10700    -102601.4   -92829.187    237.30549    20724    226676.62   -23.855957    71.752453   -79.247427   -64.072898     435.4446    23.498175    22.153365   0.31530207     435.7599   -39.653707   -2195.6022 
   10800   -102726.05   -92867.207    239.40904    20724     226937.2    -46.03375    39.541972    -200.2426    22.599378    435.46756    23.511057     22.16551   0.30382195    435.77138   -40.139793   -2149.8822 
   10900    -102597.5   -92810.264    237.67029    20724    226793.13   -49.997877   -122.96678   -251.75398    224.72713    435.23354    23.509911    22.164429   0.42083083    435.65437   -51.718537   -2198.6678 
   11000   -102502.01   -92791.224     235.8137    20724    226800.08    3.4531066    100.50582   -33.222719   -56.923784    435.48922    23.503369    22.158262   0.29298932    435.78221   -62.109949   -2208.8823 
   11100   -102520.47   -92801.447    236.01378    20724    226860.93   -56.551575    4.5087682    97.264204    -271.4277    435.49316    23.506415    22.161133   0.29102003    435.78418   -22.764316   -2236.7596 
   11200   -102473.78   -92753.783    236.03754    20724    226893.97    7.4257768    23.049697   -259.72824    258.95588    435.49107    23.508183    22.162801   0.29206617    435.78313   -34.590717   -2275.2428 
   11300   -102470.76   -92818.877    234.38338    20724    226933.14    35.214999   -70.225753    43.844076    132.02667    435.32799    23.514616    22.168865   0.37360497     435.7016    1.0611462   -2247.9295 
   11400   -102517.77   -92803.947    235.88746    20724    227052.56    49.293075   -74.549575    106.21995    116.20885    435.54407    23.514966    22.169195   0.26556471    435.80964  -0.39361812   -2259.1937 
   11500   -102482.45   -92841.754    234.11171    20724    226806.35   -89.307221   -185.56209    281.81246   -364.17204    435.44472    23.504895      22.1597   0.31524227    435.75996    7.8835898   -2231.0661 
   11600    -102430.6   -92759.422    234.85186    20724    227031.55    43.384305    91.710876     203.8454   -165.40336    435.53467    23.514132    22.168409   0.27026467    435.80494   -12.626605   -2294.6461 
   11700   -102399.79   -92707.178    235.37246    20724    226883.36   -17.095291   -34.750765   -113.70576    97.170658    435.36819    23.510951     22.16541   0.35350667    435.72169   -35.945431    -2325.008 
   11800   -102463.87   -92722.746    236.55043    20724    227029.63    72.116041     139.3114   -71.925385     148.9621    435.37364    23.518381    22.172414   0.35077944    435.72442   -24.836335   -2322.5863 
   11900   -102350.09   -92708.076     234.1438    20724    226679.58    60.116556    61.500936   -46.585056    165.43379    435.03297    23.509442    22.163988   0.52111267    435.55409   -18.682056   -2353.7662 
   12000   -102407.96    -92647.63    237.01694    20724    226909.79     1.841451   -52.993942   -2.7507661    61.269061    435.50718    23.508568    22.163163   0.28401053    435.79119   -41.750969   -2382.4134 
   12100   -102342.26   -92675.273     234.7501    20724    226809.81    3.2985113    66.650008    -3.642564    -53.11191    435.40339    23.506189    22.160921   0.33590278     435.7393   -33.614722   -2365.6657 
   12200   -102483.57   -92717.838    237.14798    20724    226902.96    27.845413    7.2909238    57.524616    18.720699    435.48197    23.508894    22.163471   0.29661381    435.77859   -16.167302   -2342.0579 
   12300   -102446.77   -92691.358    236.89744    20724    226861.08   -103.42543    30.862288   -188.17516   -152.96342    435.15353    23.515594    22.169787   0.46083406    435.61437   -56.704905   -2323.7815 
   12400   -102464.38    -92707.17    236.94111    20724    227076.75    47.698608    72.539271    32.971813     37.58474    435.54523    23.516188    22.170347   0.26498418    435.81022   -30.470219   -2336.6928 
   12500   -102453.87   -92720.265    236.36794    20724    226767.44   -30.631352   -41.797846   -95.504979    45.408768    435.23821    23.508454    22.163055    0.4184961     435.6567    -39.33394   -2322.3162 
   12600   -102423.31   -92615.448    238.17107    20724    226969.79    -38.30463    64.350114   -265.84733    86.583325     435.2441     23.51878    22.172791   0.41554881    435.65965   -35.403262   -2424.1374 
   12700   -102315.86   -92623.399    235.36879    20724     226726.6   -14.066332   -31.526443    -3.204117    -7.468435    435.13828    23.509035    22.163604   0.46846224    435.60674   -62.188945   -2399.7924 
   12800   -102293.11   -92591.906    235.58106    20724    226920.33    19.497213    83.718764     36.70123   -61.928356    435.32579    23.514011    22.168295   0.37470716    435.70049   -43.764859   -2445.7363 
   12900   -102370.42   -92629.955    236.53452    20724     226818.3    77.701071   -14.283587   -3.0741095    250.46091    435.51564      23.5036    22.158479   0.27978097    435.79542   -44.653225   -2413.9099 
   13000   -102479.78   -92612.181    239.62172    20724    226935.11   -72.815306   -92.921994    -138.2612     12.73728    435.54181    23.508945    22.163519   0.26669379    435.80851   -40.512966   -2426.6538 
   13100   -102428.38   -92606.624    238.50846    20724    226715.09   -14.935258   -9.0022477    -33.31552   -2.4880059    435.09465    23.509617    22.164152   0.49027257    435.58493   -33.217775   -2450.3096 
   13200   -102372.65   -92584.507    237.69224    20724    226915.06   -63.411576    179.06069   -326.49507    -42.80035    435.47333    23.509754    22.164282   0.30093581    435.77426   -20.114527   -2476.8134 
   13300   -102381.16   -92600.273    237.51608    20724    226772.36   -15.186494    -39.60029   -9.3387965    3.3796038    435.44729    23.503064    22.157974   0.31395367    435.76125   -2.3274587   -2486.5671 
   13400   -102331.56   -92537.563    237.83452    20724    226887.39    24.426851   -121.23493    141.46516     53.05032     435.4746    23.508287    22.162898   0.30029774     435.7749    -25.81948   -2524.8191 
   13500   -102434.07   -92533.746    240.41646    20724    226642.91   -32.883532   -33.180088    121.92832   -187.39883    435.31013    23.500056    22.155138   0.38253314    435.69267   -22.417877   -2538.6678 
   13600   -102305.49   -92560.334    236.64854    20724    226590.92    131.64628    60.335819    466.21478   -131.61176    435.12281    23.502418    22.157365   0.47619722      435.599   -29.021647   -2514.1567 
   13700   -102441.99   -92575.518    239.59451    20724    226706.87   -101.80837   -229.42966    114.34102   -190.33647    435.44457    23.499743    22.154844    0.3153162    435.75988   -19.663052   -2497.6685 
   13800   -102279.34   -92521.855     236.9478    20724    226796.28    23.711132    159.20623   -82.035731   -6.0370981    435.47463    23.503565    22.158447   0.30028315    435.77492   -38.027952   -2535.1538 
   13900   -102306.92   -92492.712    238.32529    20724    226859.66   -1.9618066    12.197032   -55.422881    37.340429    435.37393    23.509568    22.164106     0.350636    435.72456    -28.02432   -2573.8581 
   14000   -102348.92   -92481.172    239.62538    20724    226868.73   -60.740981    -39.80178    79.923282   -222.34445    435.47377    23.507342    22.162008   0.30071423    435.77449   -55.999611   -2554.6706 
   14100   -102313.43   -92450.405     239.5107    20724    226768.66   -17.890477    49.785132   -80.666805   -22.789757    435.50589    23.501291    22.156302    0.2846569    435.79054   -61.981147   -2584.4388 
   14200   -102260.83   -92448.999    238.26757    20724    226785.78    25.981463    56.137714    63.398243   -41.591568    435.59682    23.499725    22.154826   0.23918922    435.83601   -47.720942    -2602.339 
   14300      -102304   -92448.159     239.3362    20724     226744.4   -15.801897   -21.266885   -163.64705    137.50824    435.57598    23.498143    22.153335   0.24960843    435.82559   -45.325087   -2605.9786 
   14400   -102329.07    -92493.56    238.84252    20724    226729.19   -94.579791   -159.67197    127.93489   -252.00229    435.68548    23.494402    22.149808   0.19486081    435.88034   -28.072944   -2576.9834 
   14500   -102295.65   -92414.949    239.93986    20724    226780.84    1.1137044    23.831454   -41.634249    21.143907    435.78769    23.494322    22.149732   0.14375323    435.93145   -53.479289   -2632.9478 
   14600   -102254.07   -92469.775    237.59887    20724    226753.46    29.366097   -25.665587    68.455493    45.308383    435.78501    23.492976    22.148463   0.14509359    435.93011    -42.46509   -2592.1325 
   14700   -102231.09   -92427.165    238.07565    20724    226562.35   -26.222416    -107.5498    65.406708   -36.524157    435.64512    23.486844    22.142683    0.2150407    435.86016    -51.94755   -2630.3038 
   14800   -102313.64   -92371.804    241.42447    20724    226736.28   -122.91839   -141.42483     -94.8923   -132.43804     435.5548    23.498293    22.153476   0.26019763      435.815   -56.225306   -2672.5639 
   14900   -102279.62   -92419.462    239.44111    20724    226805.11    92.922589    126.26111     121.5404    30.966259    435.52189    23.502748    22.157676   0.27665337    435.79855   -40.184745   -2652.0763 
   15000   -102279.42   -92431.314    239.14846    20724    226701.96    31.307689   -47.058781    -33.04918    174.03103    435.50492     23.49786    22.153068   0.28514246    435.79006   -55.881562   -2623.4453 
   15100   -102347.58   -92432.317    240.77922    20724     226764.7    57.455793    169.34817    85.552622   -82.533411    435.35997    23.505024    22.159822   0.35761287    435.71759   -50.932117   -2629.1947 
   15200   -102263.54   -92409.538     239.2917    20724    226606.02    3.1204119    115.33288   -251.12866    145.15701    435.28928    23.498706    22.153866   0.39295875    435.68224   -41.998142   -2663.8235 
   15300   -102294.54   -92416.286    239.88055    20724    226822.65     70.27175     154.2885    104.17397   -47.647218    435.59706    23.501628    22.156621   0.23906841    435.83613   -29.023658   -2668.2012 
   15400   -102159.79   -92390.792    237.22751    20724    226563.25   -15.898675   -64.842097    103.15841   -86.012342    435.44516    23.492282     22.14781   0.31502037    435.76018   -30.521838   -2696.5357 
   15500   -102290.97   -92405.884    240.04647    20724    226838.81    16.267982   -37.934409   -9.8067467    96.545101    435.41285    23.507437    22.162097   0.33117571    435.74402   -9.6364401   -2696.2582 
   15600   -102265.67   -92402.174    239.52214    20724    226915.25    15.619953    -93.30868    172.62745   -32.458907    435.59648    23.506441    22.161158   0.23935994    435.83584   -14.704152   -2694.2815 
   15700   -102290.71   -92407.618    239.99792    20724    226756.94   -8.8440884     -15.6805     146.9793   -157.83106    435.44302     23.50238     22.15733   0.31609136    435.75911   -6.9824149   -2701.9706 
   15800   -102251.28   -92358.049    240.24413    20724    226736.35     38.25481     219.1438   -119.36425    14.984879    435.52049    23.499223    22.154353   0.27735733    435.79784   -11.552171   -2748.8392 
   15900   -102199.43   -92325.004     239.7875    20724    227082.83    1.1662401   -157.06923    141.70311    18.864837    435.59109    23.515265    22.169477   0.24205538    435.83314    6.8197522   -2790.1375 
   16000   -102227.54   -92379.693    239.14209    20724    226952.63    66.537415   -97.041086    103.44676    193.20658    435.48666    23.511341    22.165777   0.29427059    435.78093    15.034409   -2753.0462 
   16100   -102153.86   -92317.709    238.85803    20724    226732.74   -66.896544    53.336549   -212.20612   -41.820061    435.13678    23.509394    22.163942   0.46920985    435.60599    10.598142   -2810.3856 
   16200    -102183.7   -92353.644    238.71015    20724    226914.03   -21.567936    22.210453   -202.67183    115.75757    435.29669     23.51447    22.168728   0.38925559    435.68594    10.685446   -2771.4651 
   16300   -102339.15   -92334.234    242.95624    20724    226856.32    7.0003839   -73.914327   -158.93398    253.84946    435.29984    23.511395    22.165828   0.38768048    435.68752     24.42942   -2811.5944 
   16400   -102154.38   -92309.149    239.07866    20724    226943.21    -13.53266   -63.073765    137.55176   -115.07597     435.4899    23.510765    22.165235   0.29265118    435.78255    23.865768   -2832.2067 
   16500    -102217.4   -92299.803    240.83583    20724    226877.87   -8.5468696   -74.764627    -101.2865    150.41051    435.24563    23.513976    22.168262   0.41478708    435.66041    21.222414   -2841.8629 
   16600   -102149.33   -92230.194    240.87335    20724    227111.36     61.50317   -30.366916     47.13411    167.74232    435.41029    23.521624    22.175472    0.3324539    435.74275    12.020991   -2900.2531 
   16700   -101968.29   -92193.178    237.37598    20724    226998.94    58.012681    171.57348   -192.72326    195.18782    435.61935    23.510158    22.164662   0.22792446    435.84728   -24.895019   -2903.1263 
   16800   -102035.05    -92149.65    240.05403    20724    227160.59    105.60214     131.8895     58.30181    126.61511    435.69443    23.516501    22.170642   0.19038316    435.88482   -22.884968   -2947.8844 
   16900   -101953.67   -92127.864    238.60684    20724    227093.56  -0.74725385    -126.2766   -46.945615    170.98046    435.80316    23.510098    22.164606   0.13601824    435.93918   -28.707783   -2961.8287 
   17000   -102096.14   -92171.274    241.01252    20724    227004.63    99.582781    228.18666    33.959988    36.601695    435.77602    23.506226    22.160955   0.14958938    435.92561   -13.168065   -2943.0357 
   17100   -102061.12   -92183.627    239.86203    20724     226897.3   -35.789391    24.858842    139.73335   -271.96036    435.66282    23.503721    22.158594   0.20619094    435.86901   -16.682192   -2924.1759 
   17200   -101987.94   -92111.695     239.8317    20724    227072.13    58.929635    18.394493    258.03681   -99.642397    435.78197     23.50956    22.164098   0.14661372    435.92859   -27.322686    -2985.805 
   17300   -102107.52   -92170.165    241.31584    20724    227024.31   -5.2439433   -41.656508    41.503762   -15.579084    435.68876    23.509599    22.164135   0.19321773    435.88198   -2.6784324    -2953.166 
   17400   -102159.17   -92188.468    242.12558    20724    227043.53    9.2369497    114.34344   -10.917988   -75.714607    435.61895    23.512478    22.166849   0.22812742    435.84707    14.789374    -2953.252 
   17500   -102070.91   -92155.977    240.77121    20724    226863.46    -78.07559   -77.738519   -215.42035    58.932103    435.58281    23.504127    22.158976   0.24619429    435.82901     5.747472   -2978.6045 
   17600   -102060.84   -92150.517    240.65925    20724    226793.32   -26.993439   -38.778564    99.714569   -141.91632    435.52318    23.502102    22.157068   0.27601053    435.79919     -3.20184   -2979.8752 
   17700    -101982.7   -92099.817    239.99296    20724    226735.15    -8.450562   -112.42694    95.973484   -8.8982345    435.21306    23.507458    22.162117    0.4310681    435.64413   -1.7162543   -3037.6392 
   17800   -102004.99   -92076.237    241.10675    20724    226759.17   -14.406569    138.73096   -134.87901   -47.071658    435.16924    23.509887    22.164407   0.45298154    435.62222   -22.491243   -3039.2602 
   17900   -102066.53   -92120.768    241.51985    20724    226690.43    73.338941    169.12579    145.44167   -94.550637    435.27712    23.503411    22.158301   0.39903867    435.67616   -8.0206728   -3017.3633 
   18000   -102072.68   -92078.891    242.68614    20724    226745.09   -46.995937   -41.190942   -244.99372    145.19685    435.18875     23.50863    22.163222   0.44322297    435.63198   -19.432274   -3043.0675 
   18100   -101981.95   -92010.953    242.13275    20724    226777.08    6.1657162   -95.068128   -2.0481722    115.61345    435.35558    23.505784    22.160538   0.35981173    435.71539   -37.719245   -3095.0621 
   18200   -101898.68   -92026.483    239.73334    20724    226687.88   -82.791704   -24.401962   -201.67404   -22.299108    435.48153    23.497762    22.152976   0.29683734    435.77836   -29.146071   -3085.3613 
   18300   -102012.63   -92036.085    242.26732    20724    226998.07    20.297868   -106.46151     101.4671    65.888009    435.48249    23.513807    22.168103   0.29635565    435.77884   -53.663083   -3051.8809 
   18400    -101878.4   -92020.046    239.39718    20724    226829.01    31.886892     53.30219   -137.21634    179.57483    435.33347    23.509072    22.163638   0.37086462    435.70434   -51.331162   -3076.8955 
   18500   -101991.76   -92042.494    241.60504    20724    226707.88    39.971129    149.15599   -56.462215    27.219612    435.19819    23.506447    22.161163   0.43850723    435.63669   -36.848086   -3073.9911 
   18600   -101955.76   -92032.487    240.97373    20724    226659.25     66.10419    40.439028    149.71755     8.155995    435.16075    23.504936     22.15974   0.45722479    435.61798   -47.371846   -3076.6618 
   18700   -101859.36   -91996.937    239.49618    20724    226895.78    78.717471    109.60245   -59.654062    186.20403    435.22633    23.515425    22.169628   0.42443271    435.65077   -44.495173    -3109.009 
   18800   -101972.61   -91963.102    243.06789    20724    226778.05   -94.106039   -220.33484   -13.487518   -48.495758    435.24683    23.508771    22.163354   0.41418377    435.66102   -26.145267   -3157.2608 
   18900    -101888.2   -91942.909    241.50839    20724    226878.38    16.261425    75.156091   -58.562003    32.190185    435.25522    23.513743    22.168043   0.40999163    435.66521   -36.121393   -3171.7502 
   19000   -101851.38   -91929.925    240.92964    20724    226750.92    92.415479     160.2126    97.034436    19.999399    435.08493    23.511738    22.166151    0.4951348    435.58007   -49.641146   -3179.9302 
   19100   -101852.38   -91898.043    241.72804    20724    226604.19    34.578725   -54.704058   -30.075398    188.51563    434.92669    23.508405    22.163009   0.57425676    435.50094   -44.453534   -3220.2517 
   19200   -101837.56   -91898.634    241.35381    20724    226592.08    47.197885   -35.164071    30.060033    146.69769    435.22918    23.499606    22.154714   0.42300844    435.65219   -37.492284   -3228.3018 
   19300   -101843.46   -91884.976    241.82888    20724    226645.13    67.203135    6.5234994    191.82636    3.2595431    435.04182    23.507417    22.162078   0.51669162    435.55851   -42.738923   -3236.3856 
   19400   -101830.24   -91854.904    242.23801    20724    226648.76    17.079885    100.77115    102.20179   -151.73328    434.89291     23.51163     22.16605   0.59114568    435.48405   -69.056413   -3239.0628 
   19500   -101910.63   -91857.435    244.12866    20724    226760.62   -30.855763   -49.169769    77.123767   -120.52129    435.03999    23.513455     22.16777   0.51760734    435.55759   -63.742475   -3237.1966 
   19600   -101872.88   -91886.092     242.5161    20724    226606.36    69.033649    104.33226    114.23293   -11.464248    434.92877    23.508461    22.163062    0.5732171    435.50198   -83.060751   -3198.9717 
   19700   -101867.85   -91924.052    241.47219    20724    226580.49   -40.710851    173.88803   -310.80212     14.78154    434.68963    23.513584    22.167892   0.69278342    435.38242    -55.83815   -3185.9042 
   19800   -101877.54   -91874.564    242.90926    20724    226650.27   -32.690534   -21.019664   -272.42649    195.37455    434.75402    23.515463    22.169664   0.66059201    435.41461   -50.225855   -3240.1923 
   19900   -101798.83    -91869.65    241.11708    20724    226484.77   -90.915808    -100.8775    14.773018   -186.64295    434.90882    23.502692    22.157624   0.58318766    435.49201   -60.435003   -3236.8017 
   20000   -101955.72   -91852.211     245.3505    20724    226621.47   -7.4001031     131.4482   -22.399562   -131.24894    434.90733    23.509824    22.164348   0.58393674    435.49126   -65.671066    -3253.629 
   20100    -101888.5   -91853.549    243.68563    20724    226752.13   -4.0561228   -76.816673   -16.876676     81.52498    435.03637    23.513113    22.167448   0.51941697    435.55578    -74.07948   -3240.8517 
   20200   -101866.06   -91832.274    243.65753    20724     226601.9   -5.0482008   -151.64236   -160.22358    296.72133    434.62519    23.516438    22.170583    0.7250072    435.35019   -71.955872   -3270.0357 
   20300   -101867.82   -91819.759    244.00407    20724    226603.07   -84.041311   -183.47578   -196.60673    127.95858    434.85925    23.510169    22.164673   0.60797277    435.46723   -71.699018   -3278.7554 
   20400   -101772.39   -91784.388    242.54562    20724    226369.58    10.342068    36.077352    177.94464   -182.99578    434.86485    23.497902    22.153108   0.60517443    435.47003   -69.587948    -3327.674 
   20500   -101745.62   -91801.288    241.48522    20724    226362.38   -10.836241   -75.960294     12.65623    30.795342    434.63161    23.503833    22.158699   0.72179554     435.3534    -69.74032   -3310.1793 
   20600   -101867.79   -91753.389    245.61512    20724    226463.89    -2.893179   -21.561855    15.162116   -2.2797977    434.47251    23.513406    22.167725    0.8013446    435.27386   -61.024537   -3367.9744 
   20700   -101748.82    -91735.99    243.14845    20724    226267.86    3.1180726     -174.152    145.76814     37.73807    434.44425    23.503992    22.158849   0.81547523    435.25972   -79.096791   -3372.1109 
   20800   -101813.41   -91798.811    243.19151    20724    226331.25    16.418891   -10.540034    53.331524    6.4651835    434.39231    23.508689    22.163277   0.84144649    435.23375   -63.541546   -3326.2514 
   20900   -101717.57   -91766.563    241.64723    20724    226362.83    49.338665    58.923152   -100.08485    189.17769    434.43852    23.509079    22.163645   0.81834179    435.25686    -65.96714   -3356.0205 
   21000   -101785.72   -91742.982    243.87475    20724    226524.48    -58.75955   -20.891834    193.14476   -348.53157    434.67743    23.511007    22.165463   0.69888719    435.37631   -52.241799   -3385.1158 
   21100   -101794.63   -91689.833    245.38195    20724     226498.5   -59.553423   -88.328543   -93.293171    2.9614458    434.73782    23.508026    22.162652   0.66868821    435.40651   -80.553739   -3411.9119 
   21200   -101680.46   -91708.858    242.14735    20724    226319.72    57.335747    63.973243    82.733786    25.300211    434.35804    23.509018    22.163587    0.8585824    435.21662   -64.541362   -3421.1335 
   21300   -101669.35   -91678.083    242.62484    20724    226593.45    -23.45954    79.170259    8.9932846   -158.54216    434.55378    23.517932    22.171991   0.76070799    435.31449   -74.821302   -3430.2062 
   21400   -101720.54   -91702.901    243.26539    20724    226411.65   -42.354788   -147.10746  -0.61655028     20.65965    434.55416    23.508485    22.163085   0.76051781    435.31468   -50.717357   -3433.2429 
   21500   -101712.71   -91687.226    243.45578    20724    226567.56    15.216056    27.686127   -103.30445    121.26649    434.45876     23.51916    22.173149   0.80822038    435.26698   -62.400178   -3436.7925 
   21600   -101597.48   -91623.368    242.20831    20724    226431.54    26.395696    69.486707    160.56503   -150.86465    434.33862     23.51535    22.169557   0.86829117    435.20691   -70.254024   -3499.6278 
   21700   -101590.55   -91596.919     242.6824    20724    226554.38   -13.570047    165.81207   -12.628522   -193.89369    434.38377    23.520506    22.174418   0.84571478    435.22949   -71.088069   -3519.2429 
   21800   -101564.12   -91579.529    242.46282    20724     226419.2    10.793329    20.611518   -363.87547    375.64394    434.45721      23.5115    22.165928   0.80899549     435.2662   -69.893371    -3543.459 
   21900    -101720.8    -91629.18    245.06181    20724    226457.19   -34.288112   -98.385884    38.732853   -43.211304     434.4554    23.513522    22.167833   0.80990063     435.2653   -40.942674   -3522.1904 
   22000   -101665.54   -91601.354    244.39557    20724    226617.18   -31.190527   -248.80294    225.99302   -70.761661    434.76228    23.513523    22.167834   0.65646027    435.41874    -62.13321   -3525.0952 
   22100   -101580.62   -91592.388     242.5511    20724    226612.08   -15.319049    97.300912   -119.68259    -23.57547    434.52019    23.519807    22.173759   0.77750449     435.2977   -53.753072   -3544.3381 
   22200   -101747.84   -91583.307    246.83253    20724    226369.76   -96.651017   -106.36401   -111.73106   -71.857983    434.59528    23.505198    22.159986   0.73996131    435.33524   -61.563295   -3551.5014 
   22300   -101599.65   -91550.706    244.02556    20724    226562.45   -46.992091    83.454368   -162.87032   -61.560322    434.79935    23.509681    22.164213   0.63792331    435.43728   -55.061231   -3586.7457 
   22400    -101590.5   -91513.349    244.71048    20724    226529.33    2.7104513   -17.420352     235.1272   -209.57549    434.53365    23.515148    22.169367   0.77077577    435.30442   -62.022505   -3621.3114 
   22500   -101613.02   -91578.732    243.66955    20724    226516.04    6.6380374    76.814349   -23.033369   -33.866868    434.80797     23.50704    22.161723    0.6336175    435.44158   -63.470178   -3556.3679 
   22600   -101634.73   -91561.997    244.60309    20724    226494.71    4.0939153   -141.68564    98.597013    55.370377    434.65312     23.51012    22.164626   0.71104045    435.36416   -85.040004   -3552.9898 
   22700   -101556.02   -91525.755    243.57193    20724    226615.01   0.97076029    103.94807    20.052857   -121.08865     434.8314    23.511541    22.165966   0.62190133     435.4533   -83.672861   -3587.3092 
   22800   -101721.33   -91541.323     247.2082    20724    226670.79   -97.961622   -110.53944    77.133968    -260.4794     434.6746    23.518676    22.172693   0.70030139     435.3749   -63.179786   -3588.9185 
   22900   -101473.91   -91427.298    243.96898    20724    226299.41   -17.202198   -159.30831    159.54955   -51.847835    434.37604    23.507476    22.162133   0.84958002    435.22562   -92.623508   -3685.5909 
   23000   -101600.57   -91457.805    246.30379    20724    226500.22    32.562242    235.89824    14.548766   -152.76028    434.48432    23.514973    22.169201    0.7954422    435.27976   -92.326907    -3656.219 
   23100   -101484.59   -91418.759    244.43566    20724    226611.54     105.4864    63.637572    165.20526    87.616362     434.9021     23.50945    22.163995   0.58655013    435.48865   -86.879291   -3701.6085 
   23200   -101546.59   -91428.449    245.70592    20724    226686.37   -132.99006    -123.1598    -303.9184    28.108038    434.57557    23.522163    22.175981   0.74981276    435.32539   -110.45577    -3657.107 
   23300   -101515.78   -91443.214    244.59906    20724    226597.46   -99.824036   -189.08318   -5.8899509   -104.49898     434.6183    23.516394    22.170541   0.72844849    435.34675    -96.03198   -3661.9171 
   23400   -101561.58   -91447.514     245.6068    20724    226407.98    52.014577    83.190511   -153.89093    226.74416    434.33602    23.514197     22.16847   0.86958873    435.20561   -106.46925   -3662.5171 
   23500   -101600.38   -91424.615    247.10525    20724    226392.39   -90.798451   -141.35486   -4.5048499   -126.53564    434.35746    23.512807     22.16716   0.85887023    435.21633   -109.39761   -3676.4306 
   23600   -101453.71   -91413.565     243.8119    20724    226347.53    68.994263   -231.66075    168.13658    270.50696    434.53926    23.505559    22.160327    0.7679693    435.30723   -127.60218   -3676.3346 
   23700   -101460.94   -91370.109    245.04271    20724    226290.13    38.250811   -126.04748    68.030388    172.76953    434.44817    23.505042    22.159839   0.81351378    435.26169   -159.91674   -3689.4574 
   23800   -101447.35   -91359.524    244.96965    20724    226388.87   -98.524515   -79.271489   -223.02339    6.7213334    434.27845    23.514764    22.169004   0.89837625    435.17682   -143.17653   -3708.2075 
   23900   -101371.71   -91352.297     243.3084    20724     226304.5   -4.7737872   -263.49511    39.596566    209.57718     434.3395    23.508729    22.163315    0.8678493    435.20735   -137.91851   -3728.6512 
   24000   -101511.75   -91326.246    247.34171    20724    226363.74   -40.317299   -56.000464    1.1357298   -66.087161    434.45572    23.508661    22.163251   0.80973964    435.26546   -108.95278   -3784.4719 
   24100   -101453.91   -91345.725    245.46413    20724    226396.96   -31.729101   -115.45946    85.191381   -64.919222    434.33891    23.513547    22.167857   0.86814573    435.20705    -123.5327   -3751.3825 
   24200   -101404.97   -91364.177    243.82746    20724     226134.1    51.329811    119.81495   -151.15688    185.33137    434.17403    23.504354     22.15919   0.95058416    435.12462   -118.54488   -3749.1992 
   24300   -101426.44   -91326.105    245.27354    20724    226256.38    73.197478   -7.6873895    110.84167    116.43815    434.20625    23.509836    22.164359   0.93447337    435.14073   -128.50826   -3778.7296 
   24400   -101326.24   -91302.365    243.41674    20724    226293.96    5.9394302    102.34007    63.194458   -147.71624    434.28244    23.509726    22.164255   0.89638101    435.17882   -126.23279   -3801.8977 
   24500   -101338.57   -91267.962    244.55169    20724    226269.59    6.3532385    164.45802   -310.11393    164.71562    434.33433    23.507055    22.161737   0.87043473    435.20477   -114.52756   -3847.4054 
   24600   -101496.29   -91252.043    248.76818    20724    226329.81    13.103484    85.596818   -173.26214    126.97578    434.27333    23.511834    22.166243   0.90093291    435.17427     -121.415   -3858.7717 
   24700   -101372.27    -91261.28    245.53229    20724    226094.26   -5.2829751    97.304005   -1.5163145   -111.63662    434.14499    23.503069    22.157979   0.96510448     435.1101    -120.1216   -3857.7328 
   24800   -101497.12   -91301.815    247.57959    20724    226237.45    21.479633   -51.613515   -48.736214    164.78863      434.526    23.500201    22.155275   0.77460195     435.3006   -115.09267   -3820.2076 
   24900   -101399.13   -91252.054    246.40862    20724    226266.56   -52.623158   -253.08464   -77.140792    172.35596    434.25362    23.509082    22.163648   0.91078816    435.16441    -101.6013    -3881.531 
   25000   -101371.17    -91252.38    245.72172    20724    226192.88   -79.235082   -46.686587   -16.591558    -174.4271    434.16335    23.507698    22.162343   0.95592603    435.11927   -116.03527   -3868.1533 
   25100   -101476.54   -91296.011     247.2209    20724    226164.58   -43.869044    114.34234   -210.55011   -35.399365    433.76544    23.517007    22.171119    1.1548816    434.92032   -96.071078   -3849.5566 
   25200   -101425.25   -91278.397    246.40301    20724    226163.13    16.761485   -8.7408268    124.35867   -65.333384    434.07864    23.508445    22.163048   0.99827799    435.07692   -117.37181   -3849.2063 
   25300   -101391.55   -91251.039     246.2491    20724    226144.32    50.348833    168.83677   -177.03227      159.242    434.11095    23.506593    22.161301   0.98212259    435.09308   -106.21096   -3890.7112 
   25400   -101393.09   -91239.333    246.57078    20724    226034.91    -29.94444     20.29569   -7.7832699   -102.34574    433.80093    23.509302    22.163855    1.1371332    434.93807   -100.84091   -3909.7677 
   25500   -101254.99   -91211.023    243.90453    20724    226248.84    36.517078     8.969358    129.37187   -28.789994    433.93352    23.516831    22.170953    1.0708416    435.00436   -109.20931   -3926.3506 
   25600   -101395.22   -91202.995    247.50484    20724    226259.21   -14.573686   -21.077312    134.13477   -156.77852    433.76372    23.521972      22.1758    1.1557388    434.91946   -88.676309   -3952.8696 
   25700    -101443.4    -91218.26     248.3041    20724    226261.91   -45.560593   -49.193378   -132.27719    44.788785    434.06775    23.513874    22.168165     1.003727    435.07147   -60.481013   -3966.6326 
   25800   -101341.31   -91194.587    246.39988    20724    226099.44   -23.589366    114.23603   -175.95905   -9.0450831    434.05717    23.505716    22.160474    1.0090131    435.06619   -83.576735   -3974.8171 
   25900   -101309.54   -91192.841    245.67087    20724    226021.65     60.32226    66.860881    63.222529    50.883371    434.07733    23.501127    22.156148    0.9989333    435.07627   -80.894995   -3984.8069 
   26000   -101232.16   -91188.378    243.90021    20724    226115.28    -4.955857   -245.31265     163.0681    67.376984    434.20115    23.502642    22.157576   0.93702485    435.13818   -68.319267   -3995.1884 
   26100   -101279.13    -91197.78    244.81241    20724    226158.98   -23.260599    152.53245   -193.26169   -29.052551    433.88663    23.513431    22.167748     1.094285    434.98091   -72.082365   -3982.8853 
   26200   -101462.14   -91231.719     248.4324    20724    226120.66     26.32217   -36.406278   -76.393867    191.76666    434.12363     23.50502    22.159818   0.97578539    435.09941   -65.420035   -3961.8769 
   26300   -101421.06   -91244.489    247.12485    20724    226216.54   -45.424479     112.6319   -241.21459   -7.6907443    434.12438    23.509982    22.164497   0.97541128    435.09979   -83.251255   -3925.4542 
   26400   -101300.31   -91222.267    244.73217    20724    226334.53    64.832695   -3.4879762    156.51939    41.466668    433.98383     23.51992    22.173866    1.0456858    435.02951   -77.920306   -3955.2836 
   26500   -101289.19   -91190.994    245.22147    20724     226295.3    54.862542   -28.179487    282.52212   -89.755012     434.0959    23.514846    22.169082   0.98964932    435.08555    -92.17334     -3973.23 
   26600   -101412.39   -91236.524    247.10752    20724    226133.49   -70.216015   -15.059678   -119.93904   -75.649323    433.84761    23.513163    22.167495    1.1137963     434.9614   -84.628133    -3938.715 
   26700   -101400.73    -91217.22    247.29328    20724    226154.01   -23.662173     25.63064   -247.51465    150.89749    433.91495    23.512405    22.166781     1.080126    434.99507   -70.096925   -3974.0834 
   26800   -101343.52   -91169.184     247.0704    20724    225938.55    14.032839   -57.769892    46.120602    53.747807    433.55507    23.510954    22.165412    1.2600634    434.81514    -105.8501   -3995.1192 
   26900    -101358.7   -91211.615    246.40875    20724    226117.54    35.328168    65.034051   -287.03691    327.98736    433.71515    23.515924    22.170098    1.1800246    434.89518   -94.274993   -3960.8903 
   27000   -101353.98   -91212.547    246.27145    20724    226056.43     -14.5963   -30.318189     21.93519   -35.405902    433.88765    23.508072    22.162695    1.0937745    434.98143   -81.626182   -3973.2097 
   27100   -101286.73   -91135.206    246.51651    20724    226130.48   -2.0962595  -0.21885475    150.47902   -156.54894    433.68758    23.517344    22.171437    1.1938091    434.88139   -99.001419   -4031.3853 
   27200   -101338.95   -91119.333     248.1702    20724    226157.01    11.441918     62.72998    216.00518   -244.40941    433.48861    23.524121    22.177826    1.2932971     434.7819   -104.10675   -4045.1217 
   27300   -101230.18   -91105.778    245.85798    20724    226198.96   -31.324356     91.11069   -261.25136    76.167603     433.8358    23.516886    22.171006    1.1197022     434.9555   -97.433986   -4060.9797 
   27400   -101272.71   -91091.809    247.22982    20724    225911.44   -26.765251   -173.96463   -45.909798    139.57868    433.72598    23.504911    22.159715    1.1746122    434.90059    -89.73302   -4093.5083 
   27500   -101240.11   -91036.732    247.77581    20724    226274.52    17.301446   -62.541561    78.232462    36.213437    433.99616    23.516468    22.170612    1.0395216    435.03568   -96.410215    -4136.206 
   27600   -101231.44   -91053.487    247.15839    20724    226163.73   -3.5839264   -66.508111   -173.88772    229.64405    433.75359    23.517283     22.17138    1.1608042     434.9144   -70.704587   -4147.9378 
   27700   -101224.31   -91041.724    247.27081    20724    225995.47   -26.375138    100.16616   -88.068375   -91.223201    433.65864    23.511107    22.165557    1.2082796    434.86692   -80.708557   -4152.2705 
   27800   -101282.29   -91052.867    248.40809    20724    226066.29    45.435128    50.244885    52.231315    33.829184    433.75854    23.512082    22.166477    1.1583298    434.91687   -87.072324   -4139.1151 
   27900   -101213.76   -91094.827    245.72511    20724    226142.26   -56.228076    -67.64593   -189.85679    88.818489    433.73593    23.516646    22.170779    1.1696362    434.90556   -73.083669   -4102.6454 
   28000   -101225.84   -91064.032    246.76635    20724    226005.36   -2.9660439    90.788336   -89.121087   -10.565381    433.45707    23.517088    22.171195    1.3090632    434.76614   -75.984282   -4139.2329 
   28100   -101171.41   -91024.261    246.41025    20724    226200.76    31.678848    188.45433   -37.225648   -56.192133    433.70094    23.520636    22.174541    1.1871278    434.88807   -91.571658   -4159.9772 
   28200   -101205.57   -90996.653    247.91021    20724    226238.44     54.98436    70.995055    40.319067    53.638956     433.9045    23.517077    22.171185    1.0853497    434.98985   -80.447615   -4203.6753 
   28300   -101182.34   -91013.902    246.92737    20724    226083.92    5.6081266    30.868543   -182.42479    168.38062    433.86173    23.510203    22.164704    1.1067336    434.96847   -87.725451   -4178.3693 
   28400   -101221.93   -90986.645    248.55048    20724     226139.4    110.22878    43.405486    145.53231    141.74854    433.74672    23.516205    22.170363    1.1642412    434.91096   -102.12998   -4197.7927 
   28500   -101203.48   -91011.187    247.50647    20724    226171.95    -50.61294   -26.674398    114.42974   -239.59416    433.80452     23.51633    22.170481     1.135339    434.93986   -96.882286   -4169.8055 
   28600   -101131.87   -91024.205    245.45138    20724    226248.42    80.291322     434.3671    -55.86929   -137.62384    434.09329    23.512481    22.166852   0.99095439    435.08425   -81.416393   -4176.5756 
   28700   -101145.49    -90936.56    247.91053    20724    226151.41   -23.309653     101.9935   -90.627971   -81.294485    433.94924    23.511341    22.165778    1.0629819    435.01222    -111.9197   -4234.8228 
   28800   -101139.63    -90911.67    248.37271    20724    226279.49   -39.698632    21.084258   -165.28126      25.1011    434.02012    23.516077    22.170243    1.0275376    435.04766   -115.76234   -4254.0512 
   28900   -101061.65   -90891.949    246.95782    20724    225961.32    36.539996    108.13818    68.102234   -66.620424    433.51419    23.513247    22.167574    1.2805074    434.79469     -116.821    -4285.004 
   29000   -101155.93   -90902.553    248.98991    20724    226112.32   -9.9239229   -35.320985  -0.53086267    6.0800792    433.99475    23.508076      22.1627    1.0402243    435.03498   -100.65862   -4285.7801 
   29100   -101051.57   -90948.672    245.33566    20724    226313.75    107.64678    97.851399    127.08248    98.006447    434.19329    23.513167    22.167499   0.94095668    435.13424   -98.194946   -4242.5976 
   29200   -101030.42   -90900.294    245.99696    20724    226276.62    48.617535   -88.517193    283.89491   -49.525106    434.11728    23.513296    22.167621   0.97895841    435.09624   -125.42722    -4262.207 
   29300   -101110.37   -90902.313    247.88928    20724    226301.17   -9.3625529    30.882816   -130.36531    71.394835    434.17473    23.513016    22.167357    0.9502341    435.12497   -97.662862   -4284.5047 
   29400   -101010.07   -90871.852    246.19352    20724    226254.39    13.609021   -51.096192   -111.15168    203.07494    434.01652    23.514871    22.169105     1.029342    435.04586   -100.53238   -4316.0435 
   29500   -101216.93   -90847.046     251.8192    20724    226276.06   -91.139396   -6.1429643   -200.80677   -66.468453    433.92205    23.518556     22.17258    1.0765738    434.99863   -140.00102   -4299.8896 
   29600   -101120.38   -90864.024    249.06229    20724    226177.31   -138.00387   -185.50239    19.272595   -247.78182    434.04222    23.510168    22.164672     1.016488    435.05871   -129.36515    -4295.441 
   29700   -101114.33   -90827.903    249.79251    20724    226188.06   -38.207093   -19.141122    110.39102   -205.87118    433.90673    23.514398    22.168659    1.0842358    434.99096   -147.89253   -4317.1187 
   29800   -101056.48    -90834.94     248.2168    20724    226227.89    18.987702   -49.279057    -58.10585    164.34801    433.84588    23.518117    22.172166    1.1146601    434.96054   -122.87135   -4336.3992 
   29900   -101031.57   -90837.414    247.55174    20724    226413.02    -77.39582   -92.379123   -102.69901   -37.109332    434.04976    23.522212    22.176026    1.0127204    435.06248   -111.11866   -4336.9544 
   30000   -101001.86   -90835.648    246.87314    20724    226213.78    60.424252   -30.364962    255.84462   -44.206903     434.1089    23.510258    22.164757   0.98314914    435.09205   -96.495524   -4369.6714 
   30100   -101072.51   -90821.807    248.92485    20724    226179.15   -81.811049   -142.30582   -45.659032   -57.468293    434.31725    23.502819    22.157744   0.87897635    435.19622   -107.81231     -4365.53 
   30200   -101179.38   -90822.531    251.50253    20724    226265.25   -68.010019   -17.139522   -19.160637    -167.7299     434.0953    23.513301    22.167625   0.98994764    435.08525   -98.058062   -4375.5356 
   30300   -101048.94   -90795.507    248.99132    20724    226191.06   -11.309184    133.85318    -65.21681   -102.56392    433.95727    23.513184    22.167515    1.0589646    435.01624   -118.14959   -4385.8145 
   30400   -100998.24   -90757.921    248.67274    20724    226275.75    14.221739   -5.1333327   -211.03759    258.83614    434.44896    23.504274    22.159115   0.81311981    435.26208    -102.5092   -4440.4138 
   30500   -101054.27   -90751.502    250.18936    20724     226144.7   -50.083718   -181.02899   -63.217143    93.994974    434.02349    23.508981    22.163553    1.0258545    435.04935   -120.14148   -4431.5512 
   30600   -100994.74    -90781.98    248.00353    20724    226191.31   -25.962266    23.073766    47.220636    -148.1812    433.98302      23.5125     22.16687     1.046091    435.02911   -113.47821   -4407.3966 
   30700   -100954.93   -90856.413    245.22936    20724    226009.05    19.216419   -48.385309   -50.777074    156.81164    433.94279    23.504115    22.158965    1.0662043      435.009   -96.397195   -4359.5483 
   30800    -101099.1   -90868.061    248.44738    20724    225934.67    14.642709   -27.085704   -144.11994    215.13377     433.8512    23.502727    22.157656     1.111998     434.9632   -100.72667   -4347.3291 
   30900   -101084.31   -90830.146    249.00903    20724    225967.86   -14.449468   -4.7602646   -9.9471216   -28.641017    433.82624    23.505129    22.159921    1.1244803    434.95072    -90.65367   -4392.6855 
   31000   -101036.16   -90797.532    248.63181    20724    225884.59    40.071773   -245.44173    166.33907    199.31798    433.56387    23.507908    22.162541    1.2556654    434.81953    -98.81435   -4425.0223 
   31100   -101009.43   -90814.369    247.57379    20724    226034.95    40.752425    179.64144   -45.425973   -11.958191    433.47859    23.518044    22.172097    1.2983058    434.77689   -74.555594   -4429.3353 
   31200   -101014.72   -90829.183    247.34261    20724    225995.79   -20.199564    162.92187   -62.715144   -160.80542    433.65775    23.511148    22.165595    1.2087262    434.86647   -85.840671   -4401.5481 
   31300   -101057.74   -90801.939    249.04877    20724    226121.27   -98.468442   -65.864071    9.6725273   -239.21378     433.6653    23.517469    22.171555    1.2049524    434.87025   -86.538745   -4422.4293 
   31400   -101045.74   -90774.116    249.43306    20724    226165.58    12.408498    123.88375   -135.18771    48.529452    433.46254    23.525273    22.178913    1.3063299    434.76887   -85.569495   -4455.5682 
   31500   -100946.36   -90767.811    247.17282    20724    225995.95    33.997008    122.11554    107.25256   -127.37708    433.51449     23.51504    22.169265    1.2803538    434.79485   -84.455762   -4470.1727 
   31600   -101012.73   -90746.765    249.29569    20724    226162.07    65.417686    -1.298489   -27.689971    225.24152    433.73941    23.517581    22.171661    1.1678957     434.9073   -110.51987   -4462.8251 
   31700   -100794.27   -90743.066    244.08035    20724    226084.54    135.59251    170.15884    -30.92245    267.54113    433.52868    23.519264    22.173247    1.2732618    434.80194    -98.83571   -4481.0621 
   31800   -100992.14   -90782.036    247.93919    20724    225938.79    75.854285    135.02827    111.57329   -19.038702    433.48589    23.512843    22.167193     1.294657    434.78054   -86.653694   -4462.2344 
   31900   -100916.98    -90744.23    247.03197    20724    226110.16    74.343921    199.11086     72.69478   -48.773878    433.48043    23.521906    22.175738    1.2973859    434.77781   -117.13688   -4463.5253 
   32000    -101091.1   -90725.293    251.72022    20724    225964.45   -85.906218    17.285556   -111.82916   -163.17505    433.50368    23.513695    22.167997    1.2857603    434.78944   -92.240839   -4505.4056 
   32100   -100957.47   -90733.821     248.2681    20724    225667.35    27.553734    100.42886    48.328934   -66.096596    433.26468    23.504712    22.159528    1.4052587    434.66994   -82.239803    -4521.878 
   32200   -101062.02   -90699.729    251.63473    20724    225904.03   -78.555002   -71.829147    166.87945   -330.71531    433.48639     23.51102    22.165475    1.2944069    434.78079   -94.345027   -4532.5765 
   32300   -101040.33   -90749.337    249.90335    20724    225694.87    6.1007571    52.974467   -76.614823    41.942627    433.20504    23.507764    22.162405    1.4350815    434.64012   -64.272636   -4527.2385 
   32400   -101001.87   -90692.815    250.34194    20724    225796.72   -19.304705   -40.884231    14.695655   -31.725537    433.42563    23.507083    22.161763    1.3247865    434.75041   -76.837178   -4567.4617 
   32500   -100963.58   -90706.712    249.07461    20724    225828.03    77.259249    46.586474    46.246619    138.94465    433.53034    23.505873    22.160623    1.2724284    434.80277   -61.819043   -4572.6976 
   32600   -100934.57   -90690.213    248.77075    20724    226040.74    14.790457    87.124837   -254.14385    211.39038    433.52461    23.517096    22.171204    1.2752963     434.7999   -81.736219    -4562.156 
   32700   -100928.03   -90702.541    248.31275    20724    225832.99    72.891905    97.424882    -68.14002    189.39085    433.42098    23.509097    22.163662    1.3271094    434.74809   -78.232963   -4562.4743 
   32800   -100964.69   -90718.873    248.80629    20724    225998.98   -56.228971   -116.23581   -9.6523097   -42.798798    433.35507    23.519523    22.173491    1.3600667    434.71513   -57.527021   -4557.8308 
   32900   -100885.35   -90672.904    247.99586    20724    225790.65   -43.958485   -157.98622    93.969938   -67.859176    433.21373    23.512515    22.166885    1.4307364    434.64446   -71.484639   -4597.5435 
   33000   -100860.92     -90654.5    247.84974    20724    226098.25     45.96953    26.020952     129.0033   -17.115665    433.39706    23.523548    22.177286    1.3390699    434.73613   -51.878096    -4631.034 
   33100   -100916.37   -90672.458    248.76006    20724    225696.07    18.767643     78.96198    116.70213   -139.36118    433.22947    23.507163    22.161839    1.4228651    434.65233    -67.33182   -4610.2518 
   33200   -100886.34   -90683.029     247.7741    20724    225740.14    62.494439   -16.535623    121.11895    82.899992    433.44076    23.503727      22.1586    1.3172209    434.75798   -63.788187   -4602.7095 
   33300   -100976.53   -90639.301    251.02609    20724    225935.05  0.011448165   -165.45433    30.388828    135.09985    433.69009    23.507111     22.16179    1.1925559    434.88264   -67.452235   -4636.7504 
   33400   -101020.36    -90719.32     250.1474    20724    225824.33    29.418181    61.116797    380.35048   -353.21273    433.49805    23.506556    22.161266    1.2885736    434.78663   -36.043354   -4596.5439 
   33500   -101036.13   -90671.908    251.68167    20724    226109.78    11.753298    154.75341    65.673544   -185.16706    433.60111    23.518612    22.172633    1.2370447    434.83816   -50.485976   -4620.7605 
[...]
  491800   -95769.534   -84103.768    283.28793    20724    221273.24   -4.0917627    40.989216   -29.221459   -24.043045    424.35454    23.517829    22.171895    5.8603291    430.21487     5475.175   -23960.056 
  491900   -95738.644   -84167.535    280.98932    20724    221399.44    49.657132   -164.38032   -3.4518383    316.80356    424.45662    23.521706     22.17555    5.8092901    430.26591    5474.6137   -23894.901 
  492000   -95792.696   -84169.225    282.26084    20724    221478.95    41.376892   -17.589794   -155.99032    297.71078    424.18933     23.53334    22.186518    5.9429375    430.13226    5484.3787   -23902.502 
  492100   -95667.897   -84095.088     281.0306    20724    221568.26   -41.331882    -119.2394    77.175668   -81.931913    423.80519     23.54875    22.201045    6.1350042     429.9402    5493.6554   -23979.974 
  492200   -95717.657   -84109.872    281.87994    20724    221444.75    119.39515   -16.851301    147.64643     227.3903     423.6964    23.545207    22.197706    6.1893977     429.8858    5507.2573   -23992.356 
  492300   -95711.826   -84137.911    281.05744    20724    221443.68   -44.471282    79.252243   -367.19661    154.53052    423.64228    23.546655     22.19907    6.2164581    429.85874    5510.4839   -23959.823 
  492400    -95731.21   -84158.683    281.02375    20724    221340.77    41.433921    70.826638   -237.23386    290.70899    423.94821    23.532687    22.185902    6.0634943    430.01171    5525.0315   -23964.956 
  492500   -95798.217   -84109.023    283.85685    20724     221379.8   -40.350267   -111.46442   -181.02636    171.43998    423.83294    23.537962    22.190875     6.121131    429.95407    5509.4334   -23993.706 
  492600   -95678.143    -84098.49    281.19679    20724    221313.21    69.825167    140.98449    51.953602    16.537409    424.05037    23.528387    22.181848    6.0124162    430.06278    5511.9552   -24015.298 
  492700   -95745.602   -84131.751    282.02723    20724    221300.15    29.883194    340.82311   -55.882817   -195.29071    424.06118    23.527393    22.180911    6.0070107    430.06819    5534.9982   -24007.101 
  492800   -95771.165   -84122.225    282.87933    20724    221593.13    9.6098646   -83.272834    41.078349    71.024079    424.49034    23.531058    22.184366    5.7924314    430.28277    5560.9238   -24032.024 
  492900   -95765.153    -84139.45    282.31505    20724     221578.4   -160.31274   -376.20702   -208.05395    103.32276    424.25735    23.536736    22.189719    5.9089243    430.16628    5565.7282   -24014.949 
  493000   -95621.632   -84150.742    278.55563    20724    221264.44    -29.77563   -4.5702616   -6.5304071   -78.226221    424.07662    23.525067    22.178718    5.9992908    430.07591    5562.3277   -24016.516 
  493100    -95736.54   -84168.622    280.91183    20724    221403.55   -14.972209    30.175545   -84.785449    9.6932767    423.75789    23.541309     22.19403    6.1586545    429.91655    5574.1518   -24010.269 
  493200   -95661.299   -84130.678     280.0061    20724    221202.02    79.776573   -19.145106    375.24894   -116.77411    423.74974    23.530819    22.184141     6.162731    429.91247    5559.5685   -24046.249 
  493300   -95705.385   -84121.734    281.29387    20724    221219.74   -20.190452    8.1768868   -241.51601    172.76776    424.06412    23.523037    22.176804    6.0055412    430.06966    5556.7446    -24048.52 
  493400    -95639.77   -84114.127    279.88522    20724    221148.51    27.076851   -233.41039    183.97275     130.6682    423.77333    23.527317    22.180839    6.1509329    429.92427    5550.1172    -24055.68 
  493500   -95645.822   -84124.243    279.78655    20724    221326.92    39.783675    196.36824   -217.26557    140.24835    424.00144    23.530474    22.183816    6.0368808    430.03832    5528.7032   -24022.634 
  493600   -95761.203    -84127.92    282.49912    20724    221270.77   -30.888337    226.20215   -286.04148   -32.825677    423.81827    23.532572    22.185793     6.128463    429.94674    5539.5067   -24031.334 
  493700   -95759.678    -84132.26     282.3567    20724     221013.4   -139.72329   -206.34698   -34.118464   -178.70441    423.37312    23.531243    22.184541    6.3510384    429.72416     5555.827   -24047.582 
  493800   -95551.617   -84079.213    278.59238    20724    221311.64    51.458541    176.60854    -64.17296    41.940042    423.39041    23.546634    22.199051     6.342397     429.7328    5544.0379   -24086.932 
  493900   -95597.528   -84073.022    279.85763    20724    221020.17    32.706164    128.28062     102.8806   -133.04273    423.64942    23.523929    22.177646    6.2128917    429.86231    5549.2122    -24110.49 
  494000   -95729.089   -84042.277    283.79901    20724    221018.49   -25.396563   -151.87197    203.06633   -127.38405    423.76022    23.520764    22.174661    6.1574906    429.91771    5546.6156   -24137.214 
  494100   -95559.901   -84011.639    280.43449    20724    220946.54    94.401198    89.601982    162.94483    30.656783    423.54161    23.523004    22.176773    6.2667955     429.8084    5544.3457    -24176.65 
  494200   -95708.256   -84024.793    283.71767    20724    221173.88    15.247368    183.31993    187.36243   -324.94026    423.78319    23.528393    22.181854    6.1460052    429.92919    5525.8915   -24134.203 
  494300   -95606.814   -84068.552    280.19167    20724    220890.88    9.4805662   -27.524465   -127.78659    183.75276    423.62136    23.517827    22.171892      6.22692    429.84828    5545.0266   -24120.334 
  494400   -95648.969   -84033.396    282.06905    20724    221084.81   -47.369625    67.730565    43.397857    -253.2373    423.85024    23.521794    22.175633    6.1124804    429.96272    5536.2918   -24139.334 
  494500   -95593.884    -84050.06    280.32671    20724    221002.18    58.451474    311.87796   -184.85478    48.331241    423.94841    23.514675    22.168921    6.0633936    430.01181    5554.8009   -24151.348 
  494600   -95609.716   -84031.545     281.1608    20724     221137.5    103.26846    29.725139    168.20386    111.87638    424.26489    23.513099    22.167435    5.9051551    430.17004    5537.3317   -24150.965 
  494700   -95775.099   -84062.329    284.42937    20724    220725.19   -71.206987   -57.819896   -64.086087   -91.714976    423.81373    23.503668    22.158544     6.130733    429.94447    5558.1326   -24151.469 
  494800   -95676.535   -84062.513    282.03141    20724    220965.26    4.9778511   -188.08765      21.6869    181.33431    423.66847    23.520478    22.174392    6.2033663    429.87183    5554.1286   -24140.108 
  494900   -95591.699   -84045.581    280.38242    20724    220755.02   -43.969014   -42.434209   -72.831566   -16.641267    423.21849     23.52178    22.175619    6.4283545    429.64685    5541.9897   -24150.613 
  495000   -95675.775   -84076.657    281.66948    20724    220965.73    -54.81992   -73.142009   -157.74364     66.42589    423.37947    23.528529    22.181982    6.3478662    429.72733    5546.3204   -24120.043 
  495100   -95697.245   -84025.442    283.43453    20724    221148.37    50.398896    190.13337   -171.31312    132.37644    423.50279    23.534824    22.187916    6.2862034      429.789    5535.9418   -24159.212 
  495200   -95661.691   -84034.128    282.36021    20724    220980.78   -19.744189   -200.22066   -197.22104    338.20914     423.6928    23.520629    22.174534     6.191199      429.884    5531.2278   -24149.845 
  495300    -95690.47   -84031.959    283.11175    20724    221113.15   -12.805168   -63.602816   -105.55395    130.74126    423.97783    23.519762    22.173717    6.0486866    430.02651    5528.3794   -24145.891 
  495400   -95648.698   -84067.921    281.22408    20724    220833.62   -77.838461   -75.541234   -73.568874   -84.405273    423.80393    23.509713    22.164243    6.1356329    429.93957    5539.7426   -24131.392 
  495500   -95592.166   -84061.062    280.01782    20724    220804.82   -29.287863    60.572811    9.8110121   -158.24741    423.51686    23.516146    22.170307    6.2791694    429.79603    5526.6498   -24130.723 
  495600   -95660.187   -84023.076    282.59206    20724    221005.62    42.918882   -172.63611   -126.92814    428.32089    423.65635    23.522962    22.176734     6.209424    429.86578    5519.8512    -24159.69 
  495700   -95614.304   -84036.808    281.14441    20724    220877.66   -36.309604    61.226791   -192.28607    22.130471    423.51373    23.520111    22.174046    6.2807374    429.79446    5522.7412    -24150.45 
  495800   -95658.995   -84027.624     282.4527    20724     220806.9   -19.338727    71.848599   -159.54992     29.68514    423.76403    23.509397    22.163945    6.1555861    429.91961     5536.989   -24178.986 
  495900   -95535.386   -83990.246    280.35869    20724     221100.8    67.350526   -137.64547   -2.6568791    342.35393    423.76499    23.525011    22.178665    6.1551029     429.9201     5526.317   -24200.477 
  496000   -95560.356   -83995.473    280.83811    20724    220846.22    80.756055    31.951043    268.60268   -58.285555    423.58483    23.516463    22.170606    6.2451864    429.83001    5522.1205   -24200.373 
  496100   -95700.078   -83997.582    284.17985    20724    220865.54     41.27562    115.47992    7.7510102   0.59593177    423.48998    23.520125    22.174059    6.2926083    429.78259    5547.2545   -24224.934 
  496200    -95661.98    -84038.66    282.25717    20724    221077.28    39.138244    236.58194   -268.58516    149.41795     423.8252    23.522089     22.17591     6.125002     429.9502    5550.9461   -24182.689 
  496300   -95697.304   -84066.192     282.4464    20724    221092.61    72.532276    168.27322   -9.1131705    58.436776     424.0754    23.515964    22.170136    5.9998992     430.0753    5540.2894   -24145.666 
  496400   -95759.468   -84066.334    283.95253    20724    221015.09   -47.673143    14.106153   -30.594379    -126.5312     424.0208    23.513355    22.167676    6.0272017      430.048    5541.7114   -24143.761 
  496500   -95580.284   -84050.034    279.99709    20724    220865.22    86.960902    88.576139    96.037028    76.269537    423.52515    23.519131    22.173122    6.2750264    429.80017    5535.3964   -24166.517 
  496600   -95608.644   -84033.437    281.08883    20724    220747.08    84.695375    198.24767   -50.149276    105.98773    423.60487    23.510628    22.165105    6.2351628    429.84004     5543.185   -24195.084 
  496700   -95599.078   -84031.092    280.91348    20724    220905.38    47.258035   -9.1262276    248.62626   -97.725927    423.94326    23.509668      22.1642    6.0659684    430.00923    5543.9988   -24193.266 
  496800   -95635.553   -84043.643    281.49442    20724    220970.88    75.774202    24.768029   -50.248941    252.80352    423.66688    23.520822    22.174715     6.204162    429.87104    5553.3829   -24190.062 
  496900   -95639.198   -84012.304    282.34397    20724    221084.16   -207.03526   -143.99853   -352.43661   -124.67064    423.85042    23.521755    22.175595    6.1123875    429.96281    5544.2213   -24195.472 
  497000   -95628.451   -83981.027    282.84251    20724    220818.54   -20.616863   -232.13749    106.82023    63.466668    423.56971    23.515409    22.169612    6.2527435    429.82246    5553.5285   -24256.889 
  497100   -95586.973   -83978.775    281.88998    20724    220930.26  -0.18741082   -69.918739    170.51666   -101.16015    423.45791    23.524462    22.178147    6.3086455    429.76655    5546.1021   -24250.107 
  497200   -95646.156    -84057.59    281.41324    20724    220872.64    19.156632    114.11744    87.596206   -144.24375     423.4102    23.522719    22.176504    6.3324986     429.7427    5552.7246   -24182.359 
  497300   -95755.092   -84041.276    284.45478    20724    220961.93   -70.050574   -174.86018    74.460506   -109.75205     423.4982    23.525028    22.178682     6.288499     429.7867    5562.7069   -24202.167 
  497400   -95658.307   -84073.842    281.31365    20724    220851.68    16.291689     96.78297   -169.80805    121.90014    423.19753    23.527512    22.181023    6.4388337    429.63637    5553.6337   -24167.589 
  497500   -95696.465   -84062.244     282.5219    20724    220980.74   -24.842559   -20.333955   -37.171361   -17.022361    423.04407    23.538654    22.191527    6.5155667    429.55963     5549.943     -24172.7 
  497600   -95676.695   -84040.815    282.56219    20724    220763.17   -5.5374042   -70.406259   -55.013314    108.80736    423.00569    23.528131    22.181606    6.5347551    429.54044    5535.2105   -24189.535 
  497700    -95625.51   -84057.463    280.91493    20724    220657.28    49.278368    185.21293   -6.1412236   -31.236607    423.18823    23.517413    22.171502    6.4434845    429.63172    5530.1435    -24176.51 
  497800   -95538.165   -84027.148    279.53004    20724    221010.88     108.8414    115.99075    21.046562    189.48688    423.25274    23.534455    22.187569    6.4112307    429.66397    5510.3019   -24180.109 
  497900    -95544.33   -84041.954    279.32022    20724    221061.58    58.454827    4.5543018   -61.609589    232.41977    423.31442     23.53544    22.188497    6.3803918    429.69481    5536.4623   -24190.244 
  498000   -95617.114    -84051.33    280.85999    20724    220990.48   -49.854783    80.478324    272.45174   -502.49441    423.31913    23.531524    22.184805    6.3780327    429.69717     5558.641   -24202.201 
  498100   -95657.736   -84081.794    281.10668    20724    220907.16    13.230071    256.25598    66.544392   -283.11016    422.97221    23.536734    22.189717    6.5514965     429.5237    5560.4227   -24181.418 
  498200   -95573.518   -84025.167    280.43667    20724    221052.16    42.741687    -56.25786    49.336116     135.1468    422.89688    23.546554    22.198975    6.5891599    429.48604    5555.4517    -24229.38 
  498300    -95753.45   -84022.995    284.85882    20724    221059.16   -51.055077    61.283963   -186.75418   -27.695012    422.80374     23.54952    22.201771    6.6357292    429.43947    5586.0231   -24260.247 
  498400   -95656.241   -83994.686    283.18566    20724    221202.95   -54.565346   -58.540685   -8.6194752   -96.535879    423.07215    23.549704    22.201945    6.5015269    429.57367    5566.2844   -24265.086 
  498500   -95527.732    -84011.39    279.65937    20724    221045.37   -15.116911   -185.80512    192.38342   -51.929026    422.88645    23.546483    22.198908     6.594376    429.48082    5570.5003   -24260.629 
  498600   -95563.975    -83951.97     281.9824    20724    221023.08    64.850368    81.106326    69.853583    43.591197    422.85311    23.546224    22.198664    6.6110468    429.46415    5562.6467   -24318.661 
  498700   -95713.556   -83996.944    284.52266    20724     221099.1   -29.054754   -171.08684    124.88188     -40.9593    423.47186    23.533061    22.186255    6.3016686    429.77353    5567.7597   -24276.434 
  498800   -95676.172   -84008.645    283.33069    20724    221065.79    35.215758    132.20975    -91.41418    64.851706    423.54512    23.529253    22.182664    6.2650377    429.81016    5550.4792   -24252.589 
  498900   -95712.238   -84032.342    283.63104    20724    221184.41   -79.902759     -37.0785   -376.09893    173.46915    423.35993    23.540712    22.193468     6.357637    429.71756    5558.2855   -24228.824 
  499000   -95602.037   -84000.722    281.72282    20724    221525.75    61.110249   -163.09079    152.23291    194.18863    423.90634    23.543681    22.196267    6.0844316    429.99077    5550.7101   -24249.636 
  499100   -95706.669   -84058.561    282.85913    20724    221257.14   -88.990443    210.10783   -344.60806    -132.4711    423.66618    23.536071    22.189092    6.2045122    429.87069    5574.7668   -24222.822 
  499200   -95764.355    -84065.19    284.09899    20724    221270.08   -37.651537   -27.321075    14.658146   -100.29168    423.82444    23.532364    22.185598    6.1253778    429.94982    5577.9152   -24220.158 
  499300   -95722.258   -84030.375    283.92215    20724    221063.95   -109.68587   -217.20434   -212.80054    100.94727    423.41927    23.532652    22.185869    6.3279663    429.74723    5567.8663   -24250.778 
  499400   -95729.904   -84094.049    282.56156    20724    221170.05    48.305413    58.858878   -201.76053    287.81789    423.26116    23.542694    22.195336    6.4070216    429.66818    5573.9881   -24199.416 
  499500   -95680.096   -84079.595    281.70304    20724    221178.36    41.853059    204.73538    213.09998   -292.27618    423.60308    23.533633    22.186794    6.2360616    429.83914    5580.1429   -24219.453 
  499600   -95671.162   -84098.923    281.01675    20724    221039.07    22.048893    75.967745     61.21368   -71.034746     423.2684    23.535521    22.188574     6.403401     429.6718    5582.5035   -24210.408 
  499700   -95824.149   -84080.477    285.17978    20724     221435.9   -181.99255   -41.695269    -211.8857   -292.39668    423.83326    23.540935    22.193678    6.1209701    429.95423    5595.6401   -24221.284 
  499800   -95623.674   -84080.365    280.31422    20724    220845.98   -90.841154   -228.68775    108.47517   -152.31088    423.51921    23.518272    22.172312    6.2779961     429.7972    5584.7655   -24234.683 
  499900   -95675.968   -84050.898    282.29967    20724    220587.61   -11.794596    85.745665    49.150243    -170.2797     423.4895    23.505335    22.160115     6.292852    429.78235    5599.1056   -24294.453 
  500000   -95736.753   -84066.642    283.39343    20724    220986.61   -89.796152   -22.768611   -77.549412   -169.07043    423.49641    23.526392    22.179967    6.2893965     429.7858     5604.903    -24268.94 
Loop time of 53117.1 on 32 procs for 500000 steps with 20724 atoms

Performance: 1.627 ns/day, 14.755 hours/ns, 9.413 timesteps/s
96.6% CPU use with 32 MPI tasks x no OpenMP threads

MPI task timing breakdown:
Section |  min time  |  avg time  |  max time  |%varavg| %total
---------------------------------------------------------------
Pair    | 6512.4     | 10425      | 13256      |2264.8 | 19.63
Bond    | 0.48275    | 0.63111    | 0.74538    |   7.1 |  0.00
Kspace  | 8498.8     | 11337      | 15266      |2180.4 | 21.34
Neigh   | 8267.7     | 9913.6     | 11491      |1319.5 | 18.66
Comm    | 389.6      | 2679.1     | 8423       |5246.7 |  5.04
Output  | 6.3944     | 34.926     | 74.425     | 396.5 |  0.07
Modify  | 13783      | 18687      | 22235      |2132.1 | 35.18
Other   |            | 40.46      |            |       |  0.08

Nlocal:    647.625 ave 706 max 596 min
Histogram: 3 1 0 8 9 1 4 2 3 1
Nghost:    7301.38 ave 7860 max 6880 min
Histogram: 2 9 4 5 0 0 3 4 2 3
Neighs:    238381 ave 280391 max 213107 min
Histogram: 3 3 13 2 1 2 3 3 1 1
FullNghs:  476765 ave 558190 max 426370 min
Histogram: 4 3 12 2 1 1 3 4 0 2

Total # of neighbors = 15256492
Ave neighs/atom = 736.175
Ave special neighs/atom = 2
Neighbor list builds = 500000
Dangerous builds not checked
write_data production.R1
PPPM initialization ...
  extracting TIP4P info from pair style
WARNING: Using 12-bit tables for long-range coulomb (../kspace.cpp:316)
  G vector (1/distance) = 0.34591
  grid = 400 48 48
  stencil order = 5
  estimated absolute RMS force accuracy = 0.000401901
  estimated relative force accuracy = 1.21031e-06
  using double precision FFTs
  3d grid and FFT values/proc = 67260 38400
write_restart restartproduction.R1
PPPM initialization ...
  extracting TIP4P info from pair style
WARNING: Using 12-bit tables for long-range coulomb (../kspace.cpp:316)
  G vector (1/distance) = 0.34591
  grid = 400 48 48
  stencil order = 5
  estimated absolute RMS force accuracy = 0.000401901
  estimated relative force accuracy = 1.21031e-06
  using double precision FFTs
  3d grid and FFT values/proc = 67260 38400
Total wall time: 14:45:18
