LAMMPS (30 Jul 2016)
# Sets up LAMMPS simulation for transient melting of ice: TIP4P/Ice
# Ensure cold thermostats do not move
# Thinbox: 16x1x1
# Defects
# Order param l=2

#### setting MD parameters ####
units real
boundary p p p
atom_style full

# read ice box in restart file
#read_data ice-ih-restart.data
read_restart restart.state
  orthogonal box = (0.433578 0.0233964 0.0220575) to (435.642 23.5078 22.1624)
  32 by 1 by 1 MPI processor grid
  20736 atoms
  13824 bonds
  6912 angles
  2 = max # of 1-2 neighbors
  1 = max # of 1-3 neighbors
  1 = max # of 1-4 neighbors
  2 = max # of special neighbors

#replicate 16 boxes, 16x1x1


#### force field definition ####
pair_style      lj/cut/tip4p/long 2 1 1 1 0.1577 10.0
pair_modify	tail yes

kspace_style	pppm/tip4p 1.0e-6

bond_style	harmonic
angle_style	harmonic
dihedral_style	none
improper_style	none

bond_coeff	1 450.0 0.9572
angle_coeff	1 55.0 104.52


# reset pair coeff
pair_coeff	* * 0.0 0.0

#OO
pair_coeff	2 2 0.21085 3.1668
#OH
pair_coeff	* 1 0.0000 0.0000

neighbor        2.0 bin
neigh_modify    every 1 delay 1 check no

timestep	2.0
fix		constraints all shake 0.000001 20 0 b 1 a 1
  0 = # of size 2 clusters
  0 = # of size 3 clusters
  0 = # of size 4 clusters
  6912 = # of frozen angles

group water type 1 2
20736 atoms in group water

#*********** SIMULATION PARAMETER TO ADJUST ****************
#Box dimensions
variable lx equal lx
variable ly equal ly
variable lz equal lz

### Temperature of the hot and cold regions ####
variable thi equal 375
variable tlo equal 215
variable runpressure equal 0.986923
# Configuration equilibrated in density and temperature

# Define dx here

variable lx equal lx
variable ly equal ly
variable lz equal lz

variable xlo equal xlo
variable xhi equal xhi


variable dx equal 2.0

### ADD IN DEFECTS AT THE CENTRE OF THE HOT THERMOSTAT ###
variable x1 equal ${lx}/4.0
variable x1 equal 435.20804405262/4.0
variable y1 equal ${ly}/2.0
variable y1 equal 23.4844071073326/2.0
variable z1 equal ${lz}/2.0
variable z1 equal 22.1403850833194/2.0

region kill1 sphere ${x1} ${y1} ${z1} 3
region kill1 sphere 108.802011013155 ${y1} ${z1} 3
region kill1 sphere 108.802011013155 11.7422035536663 ${z1} 3
region kill1 sphere 108.802011013155 11.7422035536663 11.0701925416597 3
delete_atoms region kill1 compress no bond yes mol yes
Deleted 12 atoms, new total = 20724
Deleted 8 bonds, new total = 13816
Deleted 4 angles, new total = 6908




variable thip equal ${thi}*2.0/3.0
variable thip equal 375*2.0/3.0
variable tlop equal ${tlo}*2.0/3.0
variable tlop equal 215*2.0/3.0
variable cbl equal ${lx}*3.0/4.0-${dx}
variable cbl equal 435.20804405262*3.0/4.0-${dx}
variable cbl equal 435.20804405262*3.0/4.0-2
variable cbh equal ${lx}*3.0/4.0+${dx}
variable cbh equal 435.20804405262*3.0/4.0+${dx}
variable cbh equal 435.20804405262*3.0/4.0+2
variable hbl equal ${lx}*1.0/4.0-${dx}
variable hbl equal 435.20804405262*1.0/4.0-${dx}
variable hbl equal 435.20804405262*1.0/4.0-2
variable hbh equal ${lx}*1.0/4.0+${dx}
variable hbh equal 435.20804405262*1.0/4.0+${dx}
variable hbh equal 435.20804405262*1.0/4.0+2


#***************************************************
## EQUILIBRATION PERIOD - to reach the steady state ###
#run 0

#reset the timestep to start your production run
reset_timestep 0

# define a group to perform averages
#group s1 type 1
###*** SYSTEM THERMOSTATTING: HOT and COLD regions ***###

fix NVE all nve
fix PRESS all press/berendsen aniso ${runpressure} ${runpressure} 500000 couple yz
fix PRESS all press/berendsen aniso 0.986923 ${runpressure} 500000 couple yz
fix PRESS all press/berendsen aniso 0.986923 0.986923 500000 couple yz


### Apply THERMOSTATS ###

#set up the "hot region" in the middle of the box
region hot block ${hbl} ${hbh} 0 ${ly} 0 ${lz} units box
region hot block 106.802011013155 ${hbh} 0 ${ly} 0 ${lz} units box
region hot block 106.802011013155 110.802011013155 0 ${ly} 0 ${lz} units box
region hot block 106.802011013155 110.802011013155 0 23.4844071073326 0 ${lz} units box
region hot block 106.802011013155 110.802011013155 0 23.4844071073326 0 22.1403850833194 units box


#set up the "cold region" at the left end of the box
region cold block ${cbl} ${cbh} 0 ${ly} 0 ${lz} units box
region cold block 324.406033039465 ${cbh} 0 ${ly} 0 ${lz} units box
region cold block 324.406033039465 328.406033039465 0 ${ly} 0 ${lz} units box
region cold block 324.406033039465 328.406033039465 0 23.4844071073326 0 ${lz} units box
region cold block 324.406033039465 328.406033039465 0 23.4844071073326 0 22.1403850833194 units box

#set up the "cold region" at the right end of the box
#region cold2 block ${h2bl} ${xhi} 0 ${ly} 0 ${lz} units box


#Cold regions  unification
#region cold union 2 cold1 cold2 units box

#Create group of cold molecules
####group cool_ice region cold
####group cool_ice include molecule

####compute cold_temp cool_ice temp
####fix cold_rescale water temp/rescale 1 ${tlo} ${tlo} 0.0001 1.0
####fix_modify cold_rescale temp cold_temp

#this calculates the temperature using only the atoms in the "hot region"
#compute hot_temp all temp/region hot

# calculate the temperature using only WATER in the "hot region"
compute hot_temp water temp/region hot

#this calculates the temperature using only WATER in the "cold region"
compute cold_temp water temp/region cold


#set up a basic velocity rescale for the hot region WATER with thip
fix hot_rescale water temp/rescale 1 ${thip} ${thip} 1.0 1.0
fix hot_rescale water temp/rescale 1 250 ${thip} 1.0 1.0
fix hot_rescale water temp/rescale 1 250 250 1.0 1.0
#change the thermostat to only act on the "hot region"
#this is done by passing it the "hot temp" compute that we defined above
fix_modify hot_rescale temp hot_temp

#set up a basic velocity rescale for the cold region
fix cold_rescale water temp/rescale 1 ${tlop} ${tlop} 1.0 1.0
fix cold_rescale water temp/rescale 1 143.333333333333 ${tlop} 1.0 1.0
fix cold_rescale water temp/rescale 1 143.333333333333 143.333333333333 1.0 1.0
#change the thermostat to only act on the "cold region"
#this is done by passing it the "cold temp" compute that we defined above
fix_modify cold_rescale temp cold_temp

### Ensure MOMENTUM CONSERVATION ###

#ensure that linear momentum is conserved despite the "thermostatting" by velocity rescaling
fix cons_mom all momentum 1 linear 1 1 1


thermo 100
thermo_style custom step pe etotal temp atoms vol press pxx pyy pzz lx ly lz xlo xhi f_cold_rescale f_hot_rescale

group ox type 2
6908 atoms in group ox
group hy type 1
13816 atoms in group hy
compute KE all ke/atom
variable TEMP atom c_KE*4186.8/(1.3806488*6.02214129)

compute cc1 all chunk/atom bin/1d x center 2 units box
#fix TPROFILE all ave/chunk 1 500 500 cc1 v_TEMP density/number file temp.dat
fix TPROFILEox ox ave/chunk 1 500 500 cc1 v_TEMP density/number file temp-ox.dat
fix TPROFILEhy hy ave/chunk 1 500 500 cc1 v_TEMP density/number file temp-hy.dat

compute orderparam ox orientorder/atom degrees 1 2 nnn 4 cutoff 3.5
compute cc2 ox chunk/atom bin/1d x center 2 units box
#fix ORDERPARAM all ave/chunk 1 500 500 cc2 c_orderparam[1] file order-param.dat
fix ORDERPARAM all ave/chunk 1 500 500 cc2 c_orderparam[1] file order-param.dat

restart 50000 config.restart

run 500000
PPPM initialization ...
  extracting TIP4P info from pair style
WARNING: Using 12-bit tables for long-range coulomb (../kspace.cpp:316)
  G vector (1/distance) = 0.345601
  grid = 405 48 48
  stencil order = 5
  estimated absolute RMS force accuracy = 0.00040596
  estimated relative force accuracy = 1.22254e-06
  using double precision FFTs
  3d grid and FFT values/proc = 67260 38880
Neighbor list info ...
  2 neighbor list requests
  update every 1 steps, delay 1 steps, check no
  max neighbors/atom: 2000, page size: 100000
  master list distance cutoff = 12.3154
  ghost atom cutoff = 12.3154
  binsize = 6.1577 -> bins = 71 4 4
Memory usage per processor = 12.7921 Mbytes
Step PotEng TotEng Temp Atoms Volume Press Pxx Pyy Pzz Lx Ly Lz Xlo Xhi cold_res hot_resc 
       0    -103810.6   -95008.493    213.74762    20724    226288.08    119.14276    217.81212    137.95712    1.6590407    435.20804    23.484407    22.140385   0.43357797    435.64162            0            0 
     100   -103654.82   -94718.986    216.99509    20724    226376.06   -48.244938    80.974787   -157.03214   -68.677461    435.14081    23.490786    22.146399   0.46719267    435.60801    25.593311   -309.82748 
     200   -103627.25   -94660.476    217.74648    20724    226507.09   -18.370962   -66.712094   -70.426573    82.025781    435.33408    23.492367     22.14789   0.37056156    435.70464    14.863627   -356.90013 
     300   -103590.08   -94605.083    218.18898    20724    226404.47   -23.321784    63.477066    -276.5975    143.15508    435.30832     23.48774    22.143527   0.38343815    435.69176    5.2465488   -404.52148 
     400   -103536.32   -94570.289    217.72837    20724    226448.78    46.614448    54.139275    93.087583   -7.3835121    435.10448     23.49554    22.150881   0.48535864    435.58984    19.753832   -456.59892 
     500   -103535.67   -94532.199    218.63749    20724    226394.72    32.901123    151.74867     93.29248   -146.33778    435.15317    23.491421    22.146997    0.4610145    435.61419    9.8061945   -485.72877 
     600   -103600.36   -94464.037    221.86379    20724    226381.75   -73.059848    -138.6151    118.13711   -198.70155    435.14263    23.491032    22.146631   0.46628252    435.60892    34.356291   -575.25383 
     700   -103514.39   -94463.881     219.7797    20724     226502.5    40.431929    73.419548      -67.879    115.75524    435.38503    23.490755    22.146369   0.34508453    435.73012    29.611775   -573.98335 
     800   -103426.36   -94418.366    218.74737    20724       226468    23.966629     95.47128   -27.796274    4.2248813    435.06053    23.497724     22.15294   0.50733476    435.56787    16.754717   -607.76658 
     900   -103559.54   -94380.021    222.91266    20724     226589.9     47.94683   -77.307576   -126.96063     348.1087    435.16669     23.50118    22.156198   0.45425684    435.62094    7.3086261    -635.5377 
    1000   -103416.33   -94357.403    219.98416    20724    226424.31    25.125219   -7.8137189    26.807071    56.382305    435.20498    23.491558    22.147126   0.43511114    435.64009    9.1351125   -664.22522 
    1100   -103417.64   -94300.983     221.3861    20724     226506.5   -35.970073    9.2577609    246.10373   -363.27171    435.33799    23.492231    22.147761   0.36860345     435.7066    17.004487   -723.74325 
    1200   -103441.77    -94298.23    222.03896    20724    226529.74    38.382705    46.970511    450.51948   -382.34188    435.27496    23.495137    22.150501   0.40011965    435.67508   -1.4794243   -710.07487 
    1300   -103427.51    -94219.32     223.6089    20724    226439.92   -42.354608    29.171294   -32.007548   -124.22757    435.28979    23.490079    22.145732   0.39270373     435.6825   -31.580486    -760.1656 
    1400   -103387.17   -94223.442    222.52931    20724    226698.13     37.74327     109.3756    -95.03444    98.888645    435.41963    23.499963    22.155051    0.3277851    435.74741   -13.701189   -769.62933 
    1500   -103375.96    -94208.38    222.62268    20724    226461.25   -55.584409    145.60218   -146.08627   -166.26913    435.22715    23.492875    22.148369   0.42402627    435.65117   -15.625437   -786.02525 
    1600   -103409.83   -94235.275    222.79217    20724    226624.28    18.073417    -134.3696    70.167302    118.42255    435.43201    23.495801    22.151127   0.32159549     435.7536   -17.287722    -758.3123 
    1700   -103343.57    -94166.16    222.86147    20724    226574.22   -37.992122   -52.869883     82.42904   -143.53552    435.23225    23.498597    22.153762   0.42147631    435.65372   -26.113597   -817.66376 
    1800   -103348.87   -94136.124    223.71943    20724    226563.89   -11.043613   0.66996326    83.950283   -117.75109    435.23853    23.497892    22.153098    0.4183368    435.65686   -29.920516   -846.55941 
    1900   -103332.04   -94136.909    223.29166    20724    226589.14   -28.493073   -4.5685956   -35.109585   -45.801038    435.30096    23.497516    22.152743   0.38711856    435.68808   -22.371927   -853.57187 
    2000   -103383.76   -94165.618    223.85052    20724    226527.29   -6.2468211   -109.82084    155.02341   -63.943031    435.21951    23.496507    22.151792   0.42784375    435.64736    -7.071666   -843.09769 
    2100   -103265.68   -94125.282    221.96258    20724    226489.65    43.508695    170.14653    78.221214   -117.84166    435.14178    23.496653     22.15193   0.46671029    435.60849   -7.0930087   -887.34162 
    2200   -103230.52   -94025.187    223.53944    20724    226574.82   -77.716847    -124.5687     51.52601   -160.10785    435.27578    23.497453    22.152684   0.39971179    435.67549   -54.399466   -930.68706 
    2300   -103232.27   -94058.536    222.77221    20724    226682.34    34.126791  -0.32440927    50.795278    51.909504    435.59811     23.49433     22.14974   0.23854585    435.83665   -27.056486   -929.16285 
    2400   -103371.63   -94051.895     226.3177    20724    226641.03   -61.758295   -68.781502   -40.617811   -75.875573     435.4573    23.495987    22.151303   0.30895119    435.76625   -7.8449076   -954.81114 
    2500   -103336.57   -94013.467    226.39951    20724    226579.47    33.568752   -202.99311    394.60026   -90.900892    435.37734    23.494953    22.150328   0.34892987    435.72627   -9.3365288   -997.33667 
    2600   -103274.51   -94033.613    224.40314    20724    226461.33   -29.520275   -51.962841   -17.305205   -19.292779    435.28474    23.491326    22.146908   0.39523194    435.67997    8.7971059   -997.90129 
    2700   -103228.02   -94009.264    223.86551    20724    226516.41    72.240249    27.085638    9.3990785    180.23603    435.40948    23.490816    22.146427   0.33286034    435.74234   -1.9812425   -1013.1829 
    2800   -103283.46   -93974.002    226.06816    20724    226478.62   -133.89144   -209.89595   -106.66399   -85.114379    435.39722    23.489187    22.144892   0.33899078    435.73621    23.140553   -1065.6418 
    2900   -103246.68   -93933.202    226.16577    20724    226743.96    106.96665   -132.99457    429.81827    24.076256    435.61258    23.497133    22.152383   0.23131143    435.84389    23.378298    -1112.545 
    3000   -103095.63    -93895.42    223.41522    20724    226672.33    101.76865    96.888498    207.64306   0.77438791     435.4019    23.499104    22.154241   0.33665187    435.73855    11.273202   -1139.4549 
    3100   -103089.08   -93858.107    224.16216    20724    226696.08   -119.47685   -36.378162   -337.86981    15.817431    435.44947    23.499051    22.154191   0.31286417    435.76234    6.1736795   -1162.0286 
    3200   -103198.15   -93855.241    226.88035    20724    226726.91   -51.195787   -79.514891     93.08675   -167.15922    435.42859    23.501213    22.156229   0.32330635    435.75189     7.406957   -1168.5538 
    3300   -103206.94   -93839.888    227.46663    20724    226748.06   -51.397663   -6.5900447   -144.44121   -3.1617297    435.57894    23.498253    22.153438   0.24812939    435.82707   -10.262289   -1168.5178 
    3400      -103152   -93835.153    226.24748    20724    226687.19    42.978959   -87.648445    17.007751    199.57757    435.59972    23.494538    22.149936   0.23773894    435.83746   -22.482905   -1169.5715 
    3500    -103220.9   -93828.483    228.08257    20724    226634.93   -39.711123   -237.23776    -72.52472    190.62911     435.3976    23.497282    22.152523   0.33879865     435.7364    10.413999   -1207.1007 
    3600   -103133.28   -93739.415    228.11772    20724    226729.88     -2.68329    57.060574   -24.438239   -40.672205    435.40125    23.502105     22.15707   0.33697652    435.73822    1.4789538   -1287.3989 
    3700   -103040.61   -93766.829    225.20164    20724    226820.74    27.591873     27.45311    150.22203   -94.899517    435.47877    23.504721    22.159536   0.29821281    435.77699   -4.3835709   -1253.3104 
    3800   -103081.67   -93698.734     227.8524    20724    226737.39   -19.641926    37.266538    53.429367   -149.62168    435.58168    23.497626    22.152847   0.24675904    435.82844   -2.1761384   -1323.3607 
    3900   -103056.61    -93709.98    226.97063    20724     226718.2    69.815463   -100.44289    124.42356    185.46572    435.46127     23.49988    22.154972   0.30696308    435.76824   -22.574307   -1298.7117 
    4000   -103025.01   -93629.231    228.16419    20724    226648.03    -38.48971   -109.59399   -122.84168    116.96654    435.47478    23.495878      22.1512   0.30020935    435.77499   -24.728466   -1375.3189 
    4100   -103031.11   -93598.929    229.04812    20724    226880.68    11.925023   -118.63774    28.059453    126.35335    435.35927    23.511053    22.165506   0.35796593    435.71723   -24.478942   -1402.1116 
    4200   -102955.84   -93649.544    225.99129    20724    226704.37    108.05208    130.02454    265.57767   -71.445972     435.2887    23.503821    22.158688   0.39324968    435.68195    -11.11122   -1373.7035 
    4300   -102951.12   -93611.994    226.78853    20724    226712.47    8.5427874    13.072257    114.49306   -101.93695    435.30686    23.503751    22.158621    0.3841714    435.69103   -10.468255   -1407.9205 
    4400   -103068.04   -93648.289    228.74644    20724     226562.4   -50.425945   -217.31911    33.611527    32.429748    435.25059    23.497489    22.152718   0.41230356     435.6629   -33.164185   -1351.9927 
    4500   -103019.25   -93639.528    227.77435    20724     226615.8     88.93184    68.094807    12.902996    185.79772     435.3479    23.497631    22.152852   0.36364804    435.71155   -16.571765   -1382.9313 
    4600   -102987.18   -93555.361    229.03939    20724    226822.27   -14.510987   -142.87718   -39.278968    138.62319    435.66776    23.499702    22.154805   0.20372184    435.87148   -18.562165   -1456.7281 
    4700   -102974.75   -93618.544     227.2033    20724    226583.94    43.697421    21.987397    222.39969   -113.29482    435.21722    23.499506     22.15462   0.42898775    435.64621   -8.6595657   -1413.6713 
    4800   -103005.38   -93569.883    229.12885    20724    226775.07   -32.606858     35.52084    26.675444   -160.01686    435.36247    23.505494    22.160265   0.35636601    435.71883   -23.356089   -1438.4766 
    4900   -102999.55   -93550.111    229.46727    20724    226632.27   -55.160361   -66.973206     109.6036   -208.11148    435.40841    23.496852    22.152118   0.33339339    435.74181   -18.905954   -1465.8487 
    5000   -103001.42   -93549.174    229.53546    20724    226651.86    10.638641    121.90818   -109.65863    19.666379    435.34123     23.49968    22.154784   0.36698328    435.70822   -21.955326   -1468.2266 
    5100   -102993.53   -93535.814    229.66829    20724    226594.96    20.913451    35.409994   0.11720067    27.213158    435.45563    23.493644    22.149093   0.30978664    435.76541   -12.674946   -1494.0391 
    5200   -102897.32   -93467.999     228.9787    20724    226802.03     109.6616   -6.0878259     112.0114    223.06123    435.30382    23.508474    22.163075   0.38569231    435.68951   -41.058358   -1530.8182 
    5300   -102949.97   -93452.777    230.62692    20724     226793.4   -15.391595    -9.440738   -58.400046    21.665999     435.4285    23.504661     22.15948    0.3233503    435.75185   -45.792987   -1538.0297 
    5400   -103080.62   -93467.255    233.44797    20724    226900.83    -35.31575   -133.74956    30.617806    -2.815499    435.56165    23.506634     22.16134   0.25677462    435.81843   -44.014235   -1524.2705 
    5500   -102890.53   -93442.232     229.4396    20724     226755.7    105.56243     49.42317    107.54803    159.71609    435.26068    23.507238     22.16191   0.40726199    435.66794   -56.018411   -1547.5134 
    5600   -102836.97   -93420.124    228.67595    20724    226903.39    27.502633   -68.430628    89.530074    61.408452     435.5564    23.506908    22.161598   0.25939925     435.8158   -41.664242   -1579.7026 
    5700   -102934.47   -93448.344    230.35818    20724    226837.17     15.14996    7.6248778   -21.820647    59.645649    435.48377    23.505438    22.160212   0.29571656    435.77948    -26.17038   -1568.2918 
    5800   -102886.16   -93360.161    231.32652    20724    226838.44   -11.405169   -9.5669472    -65.69783    41.049271    435.39813    23.507815    22.162453   0.33853341    435.73667   -54.380569   -1628.1221 
    5900   -102759.68   -93355.423    228.37008    20724    226869.96    45.002033    76.509382   -130.70999     189.2067    435.67793    23.501898    22.156875   0.19863432    435.87657   -47.636859   -1638.9446 
    6000   -102872.28   -93349.601    231.24579    20724    227006.97   -44.503748   -243.11541   -206.24559    315.84975    435.66071    23.509458    22.164002   0.20724584    435.86795   -49.302131   -1637.3425 
    6100   -102808.52   -93303.951    230.80615    20724    226802.39   -54.300236    90.611301   -14.047518   -239.46449    435.37651    23.506531    22.161242   0.34934268    435.72586   -40.126146   -1700.0903 
    6200   -102873.78   -93292.698    232.66407    20724    226909.13   -16.908868   -100.23212   -21.415796     70.92131    435.59182    23.506249    22.160977   0.24169157    435.83351   -58.920511   -1693.3148 
    6300   -102775.65   -93239.637    231.56964    20724    226783.13   -25.923334    -89.99269   -63.990758    76.213446     435.4366    23.503911    22.158772   0.31929943     435.7559   -54.246329    -1754.626 
    6400   -102773.81   -93229.197    231.77838    20724     226751.9   -46.411326   -57.674528    247.27337   -328.83282    435.50023    23.500575    22.155628   0.28748434    435.78772   -40.476357   -1779.6587 
    6500    -102750.2   -93171.984    232.59457    20724    226945.57    23.828895    206.61398   -207.67047     72.54317    435.59679    23.508003     22.16263   0.23920591    435.83599   -50.031982   -1826.8442 
    6600   -102834.62   -93139.267    235.43893    20724    226632.65   -30.091181   -15.194514   -159.95851    84.879485    435.30584     23.49964    22.154746   0.38467778    435.69052   -87.192443   -1829.6553 
    6700   -102728.98   -93204.048    231.30054    20724    226796.81     53.45098   -17.540426    208.73315   -30.839787    435.66232     23.49853    22.153699   0.20643987    435.86876   -69.231718   -1783.3988 
    6800   -102781.08   -93166.121    233.48674    20724    226494.64    28.811637   -134.90779    82.317113    139.02559    435.30181    23.492592    22.148102   0.38669275    435.68851   -68.261034    -1830.941 
    6900   -102730.65   -93138.669    232.92879    20724    226594.11   -43.901925    107.55321   -251.38096    12.121973    435.26277    23.498804    22.153958   0.40621436    435.66899   -63.710695   -1856.4278 
    7000   -102734.99   -93182.304    231.97452    20724    226512.95    67.823248    123.04185    107.05844   -26.630543    435.15776     23.49743    22.152663   0.45872067    435.61648   -46.771682   -1840.1447 
    7100   -102712.26   -93149.775    232.21259    20724    226556.93   -5.4897701    149.52293    27.315739   -193.30798    435.34075    23.494772    22.150157   0.36722735    435.70797    -41.98843   -1872.7872 
    7200   -102691.75   -93220.359    230.00039    20724    226597.65    9.4283147   -103.70024   -48.156965    180.14215    435.23436    23.499755    22.154855    0.4204212    435.65478   -34.986146    -1808.168 
    7300   -102744.67   -93161.913    232.70485    20724    226572.12   -45.252546    76.110705   -58.156112   -153.71223    435.06121    23.503106    22.158014    0.5069935    435.56821   -56.570469   -1844.5356 
    7400   -102740.39     -93146.6    232.97273    20724    226541.87    74.564073    230.52646    94.577478   -101.41172    435.21767    23.497313    22.152552   0.42876305    435.64644   -52.175775   -1875.2442 
    7500   -102725.51   -93099.935    233.74458    20724    226832.22   -12.210722    171.22903   -168.10303   -39.758165    435.44565     23.50621     22.16094   0.31477375    435.76043   -55.405165   -1905.7755 
    7600    -102649.6   -93114.641     231.5441    20724    226612.33    40.304769    4.0861666    144.94366   -28.115524    435.23942    23.500379    22.155443   0.41789182    435.65731   -40.718419   -1914.6361 
    7700   -102697.65   -93082.735    233.48579    20724    226670.21    15.259401   -122.36955   -2.9547023    171.10245    435.22213    23.503847    22.158713   0.42653424    435.64867   -43.094039   -1942.9186 
    7800   -102694.41   -93089.463    233.24362    20724    226619.22   -36.360733   -224.27459    137.68675   -22.494358    435.25897    23.500209    22.155282   0.40811487    435.66709   -40.263426    -1940.546 
    7900   -102670.42   -93039.893    233.86483    20724    226763.36    13.727461   -137.74669    88.847358    90.081718     435.4421    23.502737    22.157666   0.31654958    435.75865   -26.997485     -2001.49 
    8000   -102690.98   -93094.056    233.04868    20724    226683.57   -37.778193   -85.756152   -77.130084    49.551657    435.37252     23.50048    22.155538   0.35134205    435.72386   -39.197142   -1935.7061 
    8100   -102687.87   -93049.035    234.06655    20724    226800.12    42.977876     171.8394   -78.825057    35.919284    435.55186    23.501681     22.15667   0.26167068    435.81353   -24.319828   -1996.7162 
    8200   -102649.85   -93020.608    233.83351    20724     226733.9     17.76783    238.87829     85.92973   -271.50453    435.62829    23.496188    22.151491   0.22345535    435.85174   -21.426631    -2030.354 
    8300   -102646.66   -93027.479     233.5893    20724    226712.63    3.9269386   -156.59305   -28.623755    196.99763    435.48021     23.49908    22.154219   0.29749613     435.7777   -29.643661   -2017.0356 
    8400   -102693.85   -93026.282    234.76431    20724    226689.01   -35.353435   -120.82822   -109.60896    124.37687    435.49613    23.497426    22.152659   0.28953454    435.78567   -29.804766   -2017.1467 
    8500   -102630.66   -93014.438    233.51752    20724    226769.09    74.197162    52.474767    48.549405    121.56731    435.52726    23.500737     22.15578   0.27397233    435.80123   -56.319565   -2008.6262 
    8600   -102521.68   -93025.038    230.61367    20724    226702.98    13.517713   -44.368174    108.44866   -23.527347    435.21576    23.505718    22.160476   0.42972051    435.64548   -52.352917   -2000.2159 
    8700   -102708.53   -92996.227    235.85068    20724     226772.8     8.531786    111.70302    122.79103    -208.8987    435.34116    23.505951    22.160696   0.36701942    435.70818   -53.413431   -2030.2933 
    8800   -102603.68   -92994.553    233.34518    20724    226729.45    68.219838    110.57873    135.93447   -41.853688    435.27788    23.505413    22.160189   0.39865848    435.67654   -37.067039   -2049.5148 
    8900   -102549.96   -92976.063    232.48962    20724       226548    21.006305    26.879628   -96.938726    133.07801    435.21019    23.497833    22.153042   0.43250379     435.6427   -46.302102   -2063.9949 
    9000   -102634.21   -92920.549    235.88356    20724    226775.19   -57.213828    -46.08968   -223.25586    97.704054    435.43997    23.503408    22.158299   0.31761547    435.75758   -35.655342   -2121.2541 
    9100   -102575.34   -92953.135    233.66269    20724    226751.59   -36.173102    8.9154595   -89.365837   -28.068927    435.48401    23.500996    22.156025   0.29559509     435.7796   -25.083154   -2100.6106 
    9200   -102614.83   -92889.622    236.16398    20724    226812.32   -7.9578277   -59.379105    350.28072   -314.77509    435.55096    23.502337    22.157289   0.26211934    435.81308     -40.0099   -2150.5665 
    9300   -102682.71   -92909.965    237.31832    20724    226865.55   -10.465608    -81.72095    117.65332    -67.32919    435.52749    23.505728    22.160486   0.27385661    435.80134   -46.668425   -2124.7134 
    9400   -102598.53   -92905.326    235.38683    20724    226856.89   -20.586957    62.880608   -95.601048    -29.04043    435.52083    23.505459    22.160232   0.27718374    435.79802    -24.96876   -2148.1504 
    9500   -102421.12   -92898.785     231.2376    20724    226833.15    87.107182    89.393886   -69.889101    241.81676    435.41669     23.50704    22.161723   0.32925484    435.74595   -35.290984   -2149.7792 
    9600   -102547.99   -92921.057    233.77754    20724    226661.95   -51.103506    11.977779   -11.886686   -153.40161    435.27878    23.501889    22.156867   0.39821103    435.67699   -17.325359   -2147.3823 
    9700   -102681.45   -92918.936    237.06994    20724    226796.75   -7.6568608    4.9280845   -38.596088    10.697421    435.41012    23.505331    22.160111   0.33253786    435.74266    -20.59986   -2147.0764 
    9800   -102546.91   -92943.879    233.19712    20724    226823.62     60.06157     109.8319    430.82231    -360.4695    435.32341    23.509064    22.163631   0.37589412    435.69931    4.9812015   -2150.8262 
    9900   -102636.23   -92935.145    235.57824    20724     226741.2    34.907755   -1.9177926    15.642503    90.998555    435.46431     23.50099    22.156018   0.30544367    435.76976  -0.59844275   -2156.8158 
   10000   -102611.45   -92906.789    235.66511    20724    226659.75    16.922711     10.06691    4.5615218      36.1397     435.3194    23.500679    22.155725   0.37790158     435.6973   -7.0469697    -2182.372 
   10100   -102636.42   -92902.764    236.36905    20724    226829.53   -38.160001    30.259191   -17.342828   -127.39637    435.43584    23.506335    22.161058   0.31968151    435.75552     18.54738   -2202.4809 
   10200   -102539.21   -92865.909    234.90354    20724    226659.24  0.014927082    46.539462   -29.528586   -16.966095    435.12646    23.505862    22.160612   0.47436796    435.60083   -12.383446   -2215.7242 
   10300   -102525.79   -92828.562    235.48451    20724    226800.93   -2.7374962    147.37721    32.162294   -187.75199     435.3387    23.507475    22.162133   0.36824975    435.70695   -11.835435   -2250.4859 
   10400   -102603.06   -92837.835    237.13571    20724    226551.81      -9.4946    12.780647   -14.175233   -27.089214    435.13731    23.499998    22.155083    0.4689461    435.60625   -17.193507   -2243.2793 
   10500   -102415.07   -92768.779     234.2477    20724    226726.12    80.895178    69.365249    272.18773   -98.867441    435.24589    23.506104     22.16084   0.41465296    435.66055   -30.125167   -2298.0596 
   10600   -102545.58   -92758.673    237.66238    20724    226655.65   -35.636491    -160.4549    52.328075    1.2173503    435.31271    23.500647    22.155695   0.38124689    435.69395   -39.629122   -2298.3066 
   10700   -102500.28   -92734.423     237.1511    20724    226677.39   -5.8907665   -186.42535    327.39747   -158.64442     435.0075    23.510017    22.164529   0.53385051    435.54135   -33.495749   -2330.8229 
   10800   -102533.52   -92772.332    237.03774    20724    226654.94    7.1890705    7.4665564    103.18037   -89.079712    435.20752     23.50345    22.158338   0.43384157    435.64136   -24.128686   -2304.4945 
   10900   -102405.47   -92756.319    234.31697    20724    226800.59   -1.7137958   0.86050323   -52.698697    46.696807    435.50714    23.502912    22.157831   0.28403046    435.79117   -20.362324   -2318.2395 
   11000   -102443.62   -92713.766    236.27689    20724    226739.28   -82.218186    96.840814   -203.44593   -140.04944    435.32993    23.504517    22.159344    0.3726343    435.70257   -15.215399   -2364.8584 
   11100   -102483.86   -92746.375    236.46217    20724    226651.39    -27.20604   -49.360811   -323.89658    291.63927    435.17194    23.504227    22.159071   0.45163196    435.62357   -15.443886   -2341.3121 
   11200    -102414.7   -92673.777    236.54566    20724    226800.25    30.935332    -9.371959    121.93051    -19.75256    435.36124    23.506832    22.161526   0.35697994    435.71822   -31.062941   -2394.9821 
   11300   -102394.52   -92696.044    235.51483    20724    226812.47    54.564416   -170.40315    222.57971    111.51668     435.2121    23.511492     22.16592   0.43155012    435.64365   -57.434301   -2348.7328 
   11400   -102284.48   -92685.028    233.11025    20724    226789.27    75.226602    297.14775    33.056239   -104.52419    435.48972    23.502795    22.157721   0.29273823    435.78246   -49.028719    -2370.551 
   11500   -102344.54   -92667.072    235.00472    20724    226825.44   -7.4515685    74.883148    52.954226   -150.19208    435.44441    23.505892    22.160641   0.31539511     435.7598   -49.031754   -2383.8123 
   11600   -102409.94   -92704.315    235.68855    20724    226864.72    11.240596    50.244491   -15.878981  -0.64372184    435.47807    23.507019    22.161703   0.29856703    435.77663   -23.415067   -2374.7055 
   11700   -102435.11    -92681.18    236.86155    20724    226682.76    -55.63425   -30.253057   -90.571474   -46.078219    435.27117    23.503174    22.158078   0.40201695    435.67318   -42.728255   -2383.1007 
   11800   -102385.88   -92616.879    237.22746    20724    226918.44    74.989172    128.45459    17.532022    78.980908     435.3579    23.513046    22.167385   0.35865206    435.71655   -44.151585   -2445.6357 
   11900    -102348.3   -92589.876    236.97065    20724    226736.26   -21.050054    53.274367     -142.184    25.759467    435.42378    23.501828    22.156809   0.32571153    435.74949   -29.447667    -2488.918 
   12000   -102263.29   -92546.244    235.96579    20724    226740.71   -18.572051    34.009453   -412.32526    322.59965    435.42184     23.50211    22.157075   0.32667781    435.74852   -63.980673    -2496.926 
   12100   -102354.04   -92606.952    236.69527    20724    226951.05   -22.683948    86.507249    20.073756   -174.63285    435.52185    23.510309    22.164804   0.27667321    435.79853   -45.139706   -2451.3073 
   12200   -102293.34   -92562.617     236.2978    20724    226646.13   -12.049252    35.645643   -77.825157    6.0317584    435.39191    23.498016    22.153215   0.34164506    435.73355    -30.88611   -2519.0182 
   12300   -102345.61   -92566.069    237.48329    20724    226768.36    27.401491   -111.40274   -50.407901    244.01512    435.59035    23.498997     22.15414   0.24242593    435.83277   -42.936456   -2505.1312 
   12400   -102230.67   -92551.436     235.0477    20724    226655.73   -13.604694   -10.510936   -9.0723922   -21.230754    435.39624    23.498396    22.153574   0.33947966    435.73572   -68.012842   -2494.3127 
   12500   -102382.73   -92543.313    238.93744    20724     226645.2    -14.88595     -87.6441   -127.17296    170.15921    435.26142     23.50149     22.15649   0.40688902    435.66831   -60.535019   -2513.2384 
   12600   -102378.47   -92547.072    238.74275    20724    226761.85      14.0584   -57.818182     260.7615   -160.76812    435.41459    23.503401    22.158292   0.33030497     435.7449   -63.278047   -2505.5822 
   12700   -102279.47   -92562.473    235.96454    20724    226672.26    59.012895    96.068756    5.8900026    75.079928    435.12946    23.506456    22.161172   0.47287076    435.60233   -25.136725   -2532.3958 
   12800   -102393.57   -92581.875    238.26425    20724     226705.2    7.2271247    81.281106   -141.28662    81.686892    435.22763    23.505513    22.160283    0.4237858    435.65141   -34.192064   -2503.6294 
   12900   -102288.62   -92507.025    237.53338    20724    226624.04    22.336488    29.014928   -139.88108    177.87562    435.33955    23.498283    22.153467   0.36782398    435.70738   -21.354041   -2593.8723 
   13000   -102330.38   -92534.255    237.88622    20724    226586.09   -101.46164   -377.54838    26.444755    46.718693    435.14931    23.501451    22.156454    0.4629435    435.61226   -22.682135   -2561.0753 
   13100   -102250.86   -92504.846    236.66931    20724    226694.86    23.380036     123.8039   -65.239771    11.575983    435.14083    23.507321    22.161987   0.46718662    435.60801    -16.82744   -2601.7485 
   13200   -102270.19   -92499.051    237.27946    20724    226435.48    87.687111    95.084266   -59.563306    227.54037    434.92204    23.499777    22.154876   0.57658149    435.49862   -36.910384   -2596.3032 
   13300   -102216.03   -92462.103    236.86136    20724     226615.6    14.291155   -12.920634    288.36909     -232.575    435.12413    23.503662    22.158538   0.47553376    435.59967   -50.310495   -2613.7741 
   13400   -102294.61   -92461.059    238.79509    20724    226541.94    26.740594    116.10003    78.933938   -114.81218    434.86904    23.506733    22.161434    0.6030787    435.47212   -30.579929   -2639.3487 
   13500   -102204.87   -92468.944     236.4242    20724    226553.33    33.957773   -34.579239    252.00191   -115.54936    434.99643    23.503882    22.158745   0.53938528    435.53581   -20.851264   -2640.8363 
   13600   -102139.17   -92470.666    234.78697    20724    226647.14    79.906916    176.62394   -180.80167    243.89848    435.17951    23.503802     22.15867   0.44784505    435.62735   -10.246708   -2649.3659 
   13700    -102218.4    -92482.77    236.41709    20724     226539.5    115.24519    169.38611   -160.26582    336.61528    435.03321    23.502171    22.157132   0.52099674     435.5542   -11.472223   -2641.1836 
   13800   -102224.62   -92487.828    236.44537    20724    226655.89   -14.911687   -54.141606   -235.91888    245.32543    435.41007    23.498032     22.15323   0.33256749    435.74263   -3.0081039   -2635.9126 
   13900   -102232.64   -92459.089    237.33795    20724    226529.12    16.945033   -48.235904    68.743631    30.327373    434.99588     23.50264    22.157575   0.53965866    435.53554    5.6194862   -2679.8867 
   14000   -102312.27   -92398.565    240.74134    20724    226430.09   -53.069579    -90.28594    57.776957   -126.69976    434.91898     23.49958     22.15469   0.57810861    435.49709   -16.035029   -2721.4058 
   14100   -102200.16   -92384.001     238.3727    20724    226393.54   -2.3296832    117.81706   -259.07051     134.2644    434.87911    23.498761    22.153917   0.59804384    435.47716    -33.63728   -2721.6359 
   14200    -102165.3   -92374.342    237.76074    20724    226394.96   -30.016139   -215.21337   -312.96582    438.13077    435.05422    23.494105    22.149528   0.51048935    435.56471   -19.228983   -2744.2361 
   14300   -102240.52   -92404.879    238.84582    20724     226475.2    36.341791    16.384385    40.957396    51.683594    434.79972    23.505144    22.159935   0.63774101    435.43746  -0.39387513   -2736.1393 
   14400   -102075.76   -92368.655    235.72445    20724    226484.97    68.040672     20.69506    134.01738    49.409579    434.77656    23.506277    22.161003   0.64932168    435.42588   -5.1569558   -2769.4962 
   14500   -102135.03   -92366.878    237.20673    20724    226493.27    4.6947697   -102.00444    73.656151    42.432594    434.97078    23.501459    22.156461   0.55220813    435.52299    6.9643072   -2780.2675 
   14600   -102146.83    -92322.49    238.57132    20724    226402.45   -38.140947   -266.85164    150.94485    1.4839512     434.8578    23.499799    22.154896   0.60869868     435.4665    7.9960606    -2828.863 
   14700   -102207.21   -92356.397    239.21421    20724    226447.77   -35.509035    45.360057    28.878066   -180.76523    434.70381    23.506313    22.161037   0.68569511     435.3895     29.44494   -2819.2381 
   14800   -102077.51    -92351.69    236.17888    20724    226496.51    80.589284   0.77017807    55.980012    185.01766    434.75332    23.507504     22.16216    0.6609392    435.41426    32.122046   -2829.0181 
   14900   -102070.22   -92328.488    236.56533    20724    226453.71   -57.362933   -34.565622   -321.68068     184.1575    434.67722     23.50734    22.162006   0.69899085    435.37621    29.504951   -2844.5651 
   15000    -102155.7   -92375.247    237.50549    20724    226358.72     67.44151    120.69317    3.8635393    77.767815    434.80499    23.498956    22.154101   0.63510361     435.4401    32.990287   -2811.7021 
   15100   -102067.84    -92345.14    236.10307    20724    226503.49    65.960784    97.376934    83.863771    16.641647    434.80264    23.506533    22.161245   0.63628151    435.43892    36.066345   -2841.5761 
   15200   -102113.62   -92327.285    237.64837    20724    226444.19    43.445511    72.253974   -18.408638    76.491196    434.74565    23.504996    22.159796   0.66477586    435.41042    29.157653   -2855.1304 
   15300   -102177.21   -92290.921    240.07568    20724    226436.94    18.712153   -95.166395    75.175963    76.126892    434.97356    23.498461    22.153635   0.55081847    435.52438    8.8192759   -2871.5212 
   15400   -102075.11   -92254.327    238.48487    20724    226176.16    -74.35242   -201.24911   -197.86852    176.06037    434.51286    23.497373    22.152609   0.78117166    435.29403   -8.9842616   -2892.3446 
   15500   -102074.52   -92216.477    239.38982    20724    226418.58    28.112555    101.97536   -120.92289     103.2852    434.57691     23.50823    22.162844   0.74914534    435.32605   -12.577649   -2926.7702 
   15600   -101916.83   -92193.674    236.11415    20724    226384.38    21.181107   -29.702479   -167.76301    261.00881    434.88799    23.498045    22.153243   0.59360412     435.4816   -35.130639   -2926.6617 
   15700   -101988.43   -92178.736    238.21573    20724    226346.51 -0.050674826    37.190599    30.482418   -67.825042     434.6932    23.501343    22.156352   0.69099998     435.3842   -33.278127   -2946.8399 
   15800   -102014.42   -92191.586    238.53475    20724    226395.77    16.757634   -58.650199    335.87153   -226.94843    434.77969    23.501563    22.156559   0.64775504    435.42744   -20.641392    -2946.468 
   15900   -101988.93   -92127.832    239.46388    20724     226480.6   -14.481596   -43.706239   -11.370269    11.631721    434.87559    23.503374    22.158266   0.59980608    435.47539   -46.282787   -2981.2192 
   16000    -101890.4   -92123.542    237.17546    20724    226369.56    14.787626    53.223789   -116.52042    107.65951    434.52905    23.506979    22.161665   0.77307365    435.30213   -47.104949   -2990.1761 
   16100   -101931.25   -92103.192    238.66158    20724    226461.57   -3.0237696    25.747981   -49.283276    14.463986    434.89403    23.501888    22.156865   0.59058523    435.48461    -48.62328   -3005.5491 
   16200   -101898.34   -92103.743    237.84892    20724    226392.39    54.446016   -134.79536    2.2753144    295.85809     434.7402    23.502455      22.1574   0.66750109     435.4077   -61.794208   -2997.2909 
   16300   -101927.87   -92151.199    237.41371    20724    226354.59   -65.433718   -27.132404    -55.79376   -113.37499    434.63281    23.503396    22.158287   0.72119723      435.354   -66.381639   -2943.7406 
   16400   -101972.25   -92106.682    239.57259    20724    226433.33    1.7883804   -36.566808    176.75333   -134.82138    434.65449    23.506897    22.161588   0.71035618    435.36484   -76.387356   -2980.5564 
   16500   -101880.46   -92069.702    238.24159    20724    226418.15   -23.420322    10.987585     56.63649   -137.88504    434.55047    23.508922    22.163497   0.76236627    435.31283   -70.420932   -3021.0837 
   16600   -101813.85   -92021.071    237.80494    20724    226322.42    7.8869873    54.015727    98.204636    -128.5594    434.34894    23.509404    22.163951   0.86312979    435.21207   -106.26286   -3038.3593 
   16700   -101840.42   -92070.761     237.2435    20724    226233.08    13.502623    241.89315    6.8735549   -208.25884     434.3722    23.504134    22.158983   0.85150061     435.2237   -99.123487   -2999.4439 
   16800   -101862.26   -92016.438    239.09287    20724    226223.87    -37.37966    13.310908   -153.16257    27.712683     434.2566    23.506784    22.161481   0.90929954     435.1659   -95.131293   -3056.6285 
   16900   -101838.28   -91992.948    239.08101    20724    226389.92   -20.545658    34.248161    25.411424   -121.29656     434.4414    23.510407    22.164897   0.81690189     435.2583   -81.996485   -3091.7136 
   17000   -101932.15   -92013.195    240.86897    20724    226307.19    3.4284408   -40.830977    25.839787    25.276512     434.7654    23.497351    22.152588   0.65490151     435.4203   -74.161603    -3084.573 
   17100   -101855.16   -92024.102     238.7345    20724    226375.64    16.120261   -27.642458   -32.233223    108.23646    434.58945    23.505661    22.160423   0.74287631    435.33232   -74.494499    -3072.892 
   17200   -101867.23    -92035.43    238.75244    20724    226255.54    -92.17458    38.820192   -244.96992   -70.374015    434.50124     23.50181    22.156792   0.78698129    435.28822   -69.879109     -3062.96 
   17300   -101784.06   -91968.436    238.35956    20724    226461.59    115.06147    75.359016   -181.68978    451.51517    434.55766    23.510983     22.16544   0.75877223    435.31643   -82.280118   -3123.5985 
   17400   -101925.22   -92020.407     240.5254    20724    226478.81   -8.4307481    5.6364174    158.36116   -189.28982    434.44485    23.514929    22.169161   0.81517648    435.26002   -80.933043   -3068.3883 
   17500   -101796.93    -92000.36    237.89699    20724    226343.34   -12.773437   -142.93593    69.379508    35.236107    434.43024    23.508291    22.162902   0.82248245    435.25272   -58.812631   -3113.7817 
   17600   -101860.74   -91973.408    240.10089    20724    226199.63   -6.5295895   -61.426199   -110.04633    151.88376    434.35991    23.502729    22.157658   0.85764449    435.21756   -59.301544    -3146.765 
   17700   -101822.28   -91937.608    240.03634    20724    226254.18    -17.03538   -111.87933   -159.93007    220.70327     434.3502    23.505825    22.160578   0.86249841     435.2127   -85.868614   -3154.2074 
   17800   -101844.58   -91934.189    240.66104    20724    226242.94    83.913919    109.79604     118.3288    23.616921    434.18122    23.509815    22.164339   0.94699007    435.12821   -75.638623    -3173.941 
   17900   -101805.02   -91892.034    240.72398    20724    226202.55   -142.68654   -133.81313   -109.19865   -185.04785     434.1181    23.509425    22.163971   0.97854877    435.09665   -98.901384   -3184.0347 
   18000    -101856.9   -91936.951    240.89312    20724    226071.15   -12.254038     -104.267   -3.3161923    70.821079    434.18901    23.500677    22.155724   0.94309323    435.13211   -58.327997   -3190.0224 
   18100   -101747.52    -91957.65    237.73431    20724     226299.1    38.930384   -182.22363    219.34526    79.669516    434.14445    23.513729    22.168028   0.96537634    435.10982    -62.20016    -3162.245 
   18200   -101777.83   -91913.474    239.54314    20724    226255.18    48.285584   -36.366859   -262.81089    444.03451    433.99714    23.515437    22.169639    1.0390293    435.03617     -76.4018   -3195.1874 
   18300   -101790.97   -91853.487    241.31894    20724    226277.44   -18.907097   -31.898804   -97.452438    72.629952    433.92748    23.518481    22.172509     1.073861    435.00134   -54.487627   -3275.4592 
   18400   -101779.56   -91876.136    240.49181    20724     226310.1   -19.299307    18.166231   -42.443332    -33.62082    434.08665    23.515866    22.170043   0.99427668    435.08092   -57.804151   -3250.9538 
   18500   -101707.12   -91849.054    239.39032    20724    226303.07    22.882429     228.9984   -58.360081   -101.99103    433.99403     23.51801    22.172065     1.040586    435.03461   -56.961688   -3280.5334 
   18600   -101662.22   -91802.749    239.42447    20724    226396.48     110.0538    194.48655    53.373123    82.301722     434.2118    23.516963    22.171078   0.93170107     435.1435   -76.317053   -3308.5165 
   18700   -101692.08   -91772.732    240.87839    20724    226360.43    19.949621    108.88928   -156.42354    107.38313    433.99861    23.520866    22.174757    1.0382941    435.03691   -77.568043    -3337.592 
   18800   -101715.12   -91747.243      242.057    20724    226389.84     35.21527   -82.299965    90.255979    97.689795    434.21203    23.516612    22.170747   0.93158335    435.14362   -81.028189   -3359.9494 
   18900   -101564.89   -91747.892     238.3929    20724    226538.91    47.653363   -9.7786644   -5.8793526    158.61811    434.35819    23.520395    22.174314   0.85850738    435.21669   -59.602591   -3375.0401 
   19000   -101803.82   -91804.817    242.81277    20724    226530.74   -33.448359   -47.797389   -321.76213    269.21444    434.31613     23.52111    22.174987   0.87953328    435.19567    -48.90122   -3328.4192 
   19100   -101663.97   -91761.674    240.46435    20724    226262.29   -12.292469   -25.912594    394.87227   -405.83709    434.29986    23.507609    22.162259   0.88766982    435.18753   -48.041529   -3382.8981 
   19200   -101771.52    -91768.59    242.90817    20724     226170.1   -158.94768    8.1325471    131.48739   -616.46297    434.18111    23.506033    22.160774   0.94704706    435.12815    -58.00409   -3363.4659 
   19300   -101653.58   -91754.426    240.38817    20724    226280.53    38.825205    226.00149    45.546291   -155.07217     433.9545    23.517909     22.17197    1.0603517    435.01485   -53.708773   -3388.7944 
   19400   -101670.87   -91772.075    240.37939    20724    226352.14    2.5309011   -10.994326     9.928366    8.6586632    434.32638    23.511558    22.165982    0.8744087    435.20079   -29.965984   -3391.8515 
   19500   -101755.34    -91786.21    242.08733    20724    226238.53    -42.62258   -7.1251002   -166.39975    45.657108    434.16299     23.51008    22.164589   0.95610417     435.1191   -26.912717   -3385.2312 
   19600    -101784.6   -91794.519    242.59599    20724    226182.06   0.49920177    115.28251   -22.202435   -91.582472    434.00554    23.511409    22.165842    1.0348321    435.04037   -31.273984    -3378.167 
   19700    -101707.7   -91806.724    240.43219    20724    226086.81    82.367892    208.58594   -75.098352    113.61608     433.9731    23.507337    22.162002    1.0510524    435.02415    -29.44556   -3374.9582 
   19800   -101676.89   -91708.132    242.07843    20724    226259.02    -108.9389   -185.27127   -228.24947    86.704046    434.06783    23.513721    22.168022    1.0036845    435.07152    -65.52878   -3423.2137 
   19900   -101619.75   -91719.329    240.41885    20724    226190.78   -49.444964   -54.984481    169.18254   -262.53295    433.84439    23.516229    22.170385    1.1154058    434.95979   -65.915283   -3416.5256 
   20000   -101659.88   -91740.626    240.87625    20724    226136.74    42.575332     239.2201   -6.4462871   -105.04782    433.81774    23.514142    22.168418    1.1287308    434.94647   -78.538433   -3390.1441 
   20100   -101738.36   -91702.978    243.69612    20724    226247.57    59.865694    49.453196   -102.84627    232.99015     433.8955    23.517795    22.171863    1.0898522    434.98535   -84.464316   -3422.0359 
   20200   -101653.27   -91691.557     241.9071    20724    226202.77    74.378855    120.69283    123.00712   -20.563387    433.75473    23.519282    22.173264    1.1602339    434.91497   -100.09066   -3419.2039 
   20300   -101601.92   -91650.483    241.65781    20724    226086.18   -9.5669178    -26.82815     80.88601   -82.758613     433.5513    23.518736    22.172749    1.2619497    434.81325   -76.902248   -3483.1035 
   20400   -101684.35   -91648.706    243.70242    20724    226071.48   -107.24979    116.74513    84.820908   -523.31541     433.6154    23.516233     22.17039    1.2298991     434.8453   -73.859611    -3485.491 
   20500   -101616.78   -91643.931    242.17755    20724    226181.57    1.6306767    72.385284   -88.782501    21.289247    434.02623    23.510823    22.165289    1.0244846    435.05072   -71.988681    -3494.021 
   20600   -101588.54   -91692.214    240.31931    20724    225848.03   -85.740241    7.7733956   -81.055678   -183.93844    433.50825    23.507513    22.162169    1.2834773    434.79172   -62.021361   -3463.0781 
   20700   -101599.64   -91700.669    240.38358    20724    225917.89   -19.579916   -45.795732   -116.03089    103.08688     433.6874    23.506292    22.161017    1.1939013     434.8813   -52.197019   -3465.5943 
   20800   -101603.82   -91665.172    241.34721    20724    225936.61    40.570065   -33.388115   -21.099905    176.19821    433.69655    23.507017    22.161701    1.1893234    434.88588   -70.818254   -3486.9833 
   20900   -101540.44   -91679.003    239.47225    20724    225833.73   -13.383669    44.833692     196.0221    -281.0068    433.64022    23.503192    22.158095    1.2174896    434.85771   -64.324633   -3480.9808 
   21000   -101583.27    -91687.42    240.30784    20724    225923.33    47.520276    201.34767    134.88071   -193.66754    433.89728    23.500889    22.155924    1.0889591    434.98624   -56.655099    -3482.095 
   21100   -101607.38   -91670.501     241.3042    20724    226093.12    82.306583   -18.880957    89.260591    176.54012    433.63251    23.516895    22.171013    1.2213451    434.85385   -56.081627   -3496.6091 
   21200   -101692.49   -91634.359    244.24865    20724    225935.84   -163.00527   -51.850144    -47.32346   -389.84221     433.7544     23.50541    22.160186    1.1604002     434.9148   -67.905835   -3516.8003 
   21300   -101489.62   -91589.503    240.41139    20724    226157.85    53.274744    122.90347   -6.5588117    43.479571    433.97918    23.510865    22.165328    1.0480091    435.02719   -60.305266   -3572.7164 
   21400   -101494.64   -91569.802    241.01165    20724    226111.75    8.4766863   -106.87628    111.59663     20.70971    433.94797    23.509313    22.163866    1.0636142    435.01159   -70.248203   -3582.2899 
   21500    -101517.7   -91632.851    240.04063    20724    226086.89    51.352982    124.92662    92.542522   -63.410198    433.96358    23.507599    22.162249    1.0558083    435.01939   -60.755205   -3533.7181 
   21600    -101528.2    -91575.94    241.67761    20724     226162.2   -46.689555   -283.59341   -6.8191482     150.3439    434.17649    23.505748    22.160505   0.94935743    435.12584   -76.869952   -3568.2925 
   21700   -101528.99   -91591.686    241.31444    20724    226202.47     21.76964   -83.071054   -13.698327     162.0783    434.32042    23.503945    22.158805   0.87739072    435.19781   -57.826964   -3574.4128 
   21800   -101581.36   -91634.413    241.54854    20724    225954.86    27.978296    84.989528    50.715177   -51.769816    434.01464    23.499351    22.154474    1.0302791    435.04492   -64.561356   -3534.5051 
   21900   -101538.63   -91655.461    239.99983    20724    226120.02   -40.394154    -148.4395   -258.65381    285.91085    434.15087    23.504249    22.159092   0.96216534    435.11303   -47.188296   -3524.1706 
   22000   -101431.94   -91624.814    238.15325    20724     225995.4    86.086209    119.37019    323.23491   -184.34647    434.12243    23.498541     22.15371   0.97638387    435.09882   -48.267891    -3563.285 
   22100    -101554.7    -91616.29    241.34124    20724    226212.09    58.424127   -85.345616     105.4635     155.1545    434.25689    23.506164    22.160897   0.90915448    435.16605   -61.719849   -3552.7394 
   22200   -101535.83   -91589.502    241.53365    20724     226053.4    16.631412    170.88634   -38.103209    -82.88889    434.09587    23.502276    22.157231   0.98966683    435.08553   -75.419454   -3567.1359 
   22300   -101455.47   -91587.962    239.61966    20724    226119.63    20.880156    -90.80413    38.085863    115.35874    434.15047     23.50424    22.159083   0.96236384    435.11284     -59.7357   -3583.1648 
   22400    -101612.5   -91614.412    242.79054    20724    226033.14    31.299826    78.290599    133.64112   -118.03224    434.14252    23.499959    22.155047   0.96633829    435.10886   -67.012551   -3554.3966 
   22500   -101603.06   -91609.066    242.69103    20724    226120.35    39.033757   -12.688924     27.62483    102.16536    434.29632     23.50033    22.155397   0.88944017    435.18576   -75.199475   -3551.5515 
   22600   -101508.06   -91561.456    241.54042    20724    225840.54   -15.578218   -107.99672   -139.46627    200.72834    434.12786    23.490342     22.14598   0.97367124    435.10153   -90.114487   -3589.7712 
   22700   -101465.33   -91544.464    240.91524    20724    226186.12    37.410403    41.634123   -48.569908    119.16699    434.04026     23.51068    22.165154    1.0174699    435.05773   -82.653073   -3607.4582 
   22800   -101599.13   -91545.686    244.13481    20724    226148.16   -68.588723   -79.543088    3.2027681   -129.42585    434.18474    23.504795    22.159606   0.94522882    435.12997   -70.841765   -3616.7616 
   22900   -101558.58   -91500.762    244.24112    20724    225986.52    39.661326   -23.298598    166.27061    -23.98804    434.03668    23.500401    22.155463    1.0192587    435.05594   -105.79363   -3638.2128 
   23000   -101486.88   -91479.561    243.01471    20724    226193.76    42.809431    76.568172     18.53216    33.327962    434.17093    23.507538    22.162192    0.9521337    435.12307   -87.741198    -3671.377 
   23100   -101500.76   -91483.147    243.26473    20724    225992.96   -41.441523   -1.9672695   -29.333438   -93.023862    434.25571    23.494808    22.150191   0.90974335    435.16546   -97.814745   -3662.2758 
   23200   -101394.73   -91490.914    240.50134    20724    226135.92    51.518538    33.489665   -151.48659    272.55254    434.00911    23.508914     22.16349    1.0330446    435.04216   -102.80322   -3649.0077 
   23300   -101480.71   -91486.719    242.69107    20724    225914.31   -5.4696895   -130.44603    102.40857    11.628396    434.13821    23.493898    22.149333   0.96849351    435.10671   -107.18015   -3651.5477 
   23400   -101492.24   -91492.461    242.83163    20724    226043.93    -31.45548    64.861521    75.712368   -234.94033    433.98829    23.504696    22.159513    1.0434572    435.03174   -108.65837   -3644.2857 
   23500   -101531.27   -91472.973    244.25265    20724    226062.42   -45.981374   -43.847011   -12.952341   -81.144772    433.62389    23.515532    22.169728    1.2256546    434.84955   -105.70794   -3667.8432 
   23600   -101435.91   -91444.705    242.62344    20724    225973.02    109.60834    67.022039    106.03195    155.77104    433.76966    23.506931     22.16162    1.1527704    434.92243   -120.38357   -3692.5027 
   23700   -101373.87   -91470.512    240.49007    20724     225956.6    59.705824    60.708326    113.03951    5.3696383    433.83287    23.504364      22.1592    1.1211653    434.95403    -120.6737    -3664.875 
   23800   -101469.77    -91449.76    243.32291    20724    225996.79    61.650423   -7.1692904    67.411863    124.70869    433.68031    23.510588    22.165068    1.1974446    434.87776   -119.41953   -3688.8107 
   23900    -101385.2   -91440.774    241.48736    20724    225945.98    44.687382    109.18962    40.328631   -15.456107    433.79333    23.504883    22.159689     1.140934    434.93427   -127.03495   -3691.2088 
   24000   -101492.41   -91463.718    243.53369    20724    226009.32   -16.983114   -78.283308    5.7700042    21.563961    433.84699    23.506723    22.161424    1.1141048     434.9611   -136.19295   -3654.1744 
   24100   -101411.74   -91443.821    242.05803    20724     225961.2    135.76828    43.947919    136.64049    226.71643    433.92011     23.50224    22.157198    1.0775461    434.99765   -118.29821   -3704.7706 
   24200   -101407.74   -91393.981    243.17105    20724    226027.52   -41.554383    170.88475   -428.19119    132.64329    433.89128     23.50647    22.161185    1.0919615    434.98324   -121.05891   -3739.9958 
   24300   -101319.77    -91395.41    241.00015    20724    226131.34    93.543678   -13.872857    172.45634    122.04755    433.76941     23.51517    22.169388    1.1528927    434.92231   -105.40424   -3758.9521 
   24400   -101479.04   -91446.953    243.61605    20724     226045.2   -54.051871   -85.395476    121.76281   -198.52295    434.01497    23.504039    22.158894    1.0301142    435.04509   -78.543588   -3731.2146 
   24500   -101404.76   -91417.948    242.51674    20724    226210.69    9.9748079    29.685856    43.726457   -43.487889    433.91559    23.515334    22.169542    1.0798029     434.9954   -106.32771   -3732.9425 
   24600   -101395.24   -91426.794    242.07075    20724    226132.06    81.600662   -64.371305    94.680358    214.49293    433.85836    23.512798    22.167151    1.1084214    434.96678   -104.51392   -3733.1063 
   24700   -101408.47   -91364.993    243.89283    20724    226197.31    -53.01443   -23.904257   -212.96154    77.822504     434.1498    23.508295    22.162906   0.96269973     435.1125   -145.74597   -3746.7743 
   24800   -101416.74   -91369.255    243.99004    20724    226166.41   -63.064979   -237.04337    35.676361    12.172074    434.06375    23.509019    22.163589    1.0057262    435.06947   -132.45489   -3757.4488 
   24900   -101363.73   -91418.957     241.4958    20724    226132.87    109.81109    167.21011   -9.8927066    172.11587    434.30193    23.500829    22.155867   0.88663671    435.18856    -116.6636   -3732.3686 
   25000   -101476.56   -91419.548    244.22151    20724    226064.55   -43.774036   -166.42153    152.47813   -117.37871     434.0679    23.503612    22.158491    1.0036522    435.07155   -109.25747   -3735.3583 
   25100    -101406.9   -91377.783    243.54403    20724     226076.4    21.265117   -65.111659    48.184886    80.722124    434.08187     23.50385    22.158715   0.99666534    435.07853   -131.00353   -3762.0879 
   25200   -101455.55   -91374.261    244.81096    20724    226063.74   -45.662523   -135.32942    72.591634   -74.249779    434.11705    23.502239    22.157197   0.97907548    435.09612   -116.75091   -3776.2341 
   25300   -101357.81   -91332.228     243.4581    20724    226108.56  0.065161839   -133.88184   -28.729248    162.80657    434.00816    23.507518    22.162173     1.033521    435.04168   -121.01539   -3816.9777 
   25400   -101349.73   -91307.935      243.852    20724    226157.38   -35.856881    85.796209   -135.36059   -58.006261    434.10607    23.507404    22.162066   0.98456543    435.09063   -116.92966   -3841.7048 
   25500   -101359.49   -91283.824     244.6744    20724    226236.41   -16.316379    94.082646   -166.48977    23.457982    434.13799    23.510646    22.165123   0.96860526    435.10659   -124.90883   -3858.4083 
   25600   -101267.13   -91269.325    242.78372    20724    226001.55   -42.458146   -12.496651   -348.43043    233.55264    434.08477     23.49988    22.154973   0.99521336    435.07999   -133.01664   -3869.3695 
   25700    -101406.2   -91265.602    246.25112    20724    226144.02    69.855349    86.848407    25.805257    96.912383    434.30598    23.501299     22.15631   0.88461037    435.19059   -131.44139   -3878.8126 
   25800   -101272.69   -91254.186    243.28625    20724    226195.53   -31.850524   -183.88842   -14.443388    102.78024    434.18576    23.507229    22.161901   0.94471888    435.13048   -135.73437     -3879.15 
   25900   -101359.99   -91267.274    245.08839    20724     226008.5   -1.4857881    4.9442101   -1.7986973   -7.6028773    433.93033    23.504423    22.159256    1.0724361    435.00276   -125.34674   -3886.9499 
   26000   -101308.55   -91281.421    243.49574    20724    226062.13   -12.661277    66.279092   -170.28394    66.021021    433.83093    23.509904    22.164423    1.1221344    434.95307   -123.70078   -3873.1252 
   26100   -101377.28   -91249.608    245.93734    20724    226283.56    52.863667    -2.767942     -32.9475    194.30644    433.90225    23.519483    22.173453    1.0864749    434.98873   -119.19533   -3908.5239 
   26200   -101389.93   -91212.309    247.15036    20724    226078.96   -12.045857    48.426462   -257.32144    172.75741    433.72199    23.513732    22.168032    1.1766059    434.89859   -150.66551   -3916.4618 
   26300    -101407.5   -91252.992    246.58896    20724    226192.46    9.7122289    57.237923   0.10470542   -28.205942    434.06869    23.510239    22.164739     1.003254    435.07195   -131.99666   -3894.5279 
   26400   -101304.28   -91240.017    244.39741    20724    226217.03   -21.519181    59.816878    43.229269   -167.60369    434.18233    23.508439    22.163041   0.94643532    435.12876   -111.55746   -3926.4288 
   26500   -101368.45   -91276.306    245.07454    20724     226311.8   -53.783433      27.3145   -42.453033   -146.21177    434.44109    23.506359    22.161081   0.81705285    435.25815   -98.759642   -3899.4352 
   26600      -101315   -91256.034    244.26878    20724     226184.9   -81.456774   -237.53166   -17.401494    10.562836    434.25753    23.504734    22.159549   0.90883428    435.16637   -111.89724   -3910.2673 
   26700    -101392.4   -91262.383    245.99414    20724    226192.54   -11.069083    25.546691    -399.5558    340.80186    434.08125    23.509903    22.164422    0.9969726    435.07823   -96.563364   -3923.8124 
   26800   -101348.44   -91241.356    245.43747    20724    225978.04   -1.4129989   -77.008919    286.79398   -214.02406    433.90421    23.503547     22.15843    1.0854968     434.9897   -115.73811   -3931.9799 
   26900   -101290.22   -91267.739    243.38281    20724    226041.59    100.62844   -41.885088    253.03578    90.734627    433.85453    23.508197    22.162814    1.1103358    434.96486    -109.4238   -3916.4688 
   27000   -101416.83   -91278.891    246.18677    20724    226197.02   -90.108402    -13.62466   -135.59759   -121.10295    433.78775    23.518088    22.172138    1.1437225    434.93148   -103.09401   -3901.2153 
   27100   -101344.34    -91256.13    244.97904    20724     226089.7    24.719506   -184.74573    172.38854     86.51571    433.95232     23.50805    22.162674    1.0614403    435.01376   -95.738316   -3941.9661 
   27200   -101352.39   -91283.816    244.50211    20724    226266.84   -44.982418   -142.13702   -183.38408    190.57385    433.99288    23.516158    22.170319    1.0411614    435.03404   -92.993545   -3907.9385 
   27300   -101260.14   -91250.453    243.07232    20724    226385.94    35.601142    33.353497    16.513159    56.936771    434.09155    23.519673    22.173632   0.99182479    435.08338   -102.78704    -3932.686 
   27400   -101285.18   -91243.886    243.83975    20724    226043.74   -20.323884    115.26519   -220.42575    44.188914    433.93901     23.50602    22.160761    1.0680951     435.0071   -92.103987   -3961.7508 
   27500   -101296.87   -91236.147    244.31146    20724    226107.75    35.125697    105.14344    39.480713   -39.247068    434.18379    23.502721    22.157651    0.9457026     435.1295   -111.93875   -3948.7886 
   27600   -101298.13   -91240.898    244.22669    20724    226276.15   -81.947145   -35.780534   -50.993472   -159.06743    434.13691    23.512741    22.167097   0.96914737    435.10605   -102.64317     -3944.42 
   27700   -101410.71    -91255.62    246.60312    20724    226097.76    -14.01595   -13.949354    6.0206767   -34.119171    433.87889    23.510458    22.164945    1.0981549    434.97705   -110.59712   -3931.5677 
   27800   -101374.38   -91283.879    245.03469    20724    226110.17    26.045773    28.930987    173.40645   -124.20012     434.0054    23.507676    22.162322    1.0348995     435.0403   -114.27345   -3901.6911 
   27900   -101309.59   -91175.666    246.08907    20724    226129.92    40.581414    229.13919   -210.93036    103.53542    434.07181    23.506904    22.161595     1.001694    435.07351   -110.70232   -4016.7598 
   28000   -101304.99   -91228.444    244.69574    20724    226048.55   -72.616464    -19.76967   -452.55597    254.47625    433.74223    23.511602    22.166024    1.1664862    434.90871    -115.2279   -3955.6173 
   28100   -101244.16   -91159.259    244.89873    20724    226300.55   -30.698667   -42.569166    -4.707131   -44.819705    434.08339    23.515458    22.169659   0.99590512    435.07929   -133.84539   -4003.9049 
   28200    -101302.9   -91159.241    246.32554    20724    226133.15   -17.435456   -172.46326   -28.376138    148.53303    434.07681    23.506937    22.161625   0.99919487    435.07601   -103.38753   -4040.3161 
   28300   -101190.71   -91157.162    243.65176    20724    226221.96     20.89341    0.2509189    193.22751    -130.7982    433.85592    23.517537    22.171619    1.1096396    434.96556   -115.63354   -4029.7961 
   28400   -101224.77   -91150.766    244.63411    20724    226122.17    61.079013   -15.433576    3.2362126     195.4344    433.69853    23.516615     22.17075    1.1883341    434.88687   -124.19304   -4035.2389 
   28500   -101303.59   -91093.586    247.93667    20724     226142.8   -59.315653   -37.359939    5.9812824    -146.5683    433.66789    23.518519    22.172545     1.203654    434.87155   -136.81425   -4074.6277 
   28600   -101204.87    -91121.91    244.85166    20724    226015.42    87.967962    72.113243    228.64918   -36.858538    433.80286    23.508236     22.16285    1.1361723    434.93903   -134.55534   -4059.4137 
   28700      -101078     -91049.2    243.53634    20724    226046.16   -7.3078107   -133.77567    65.387002    46.465232    433.64738    23.514049    22.168331    1.2139114    434.86129   -128.59752   -4134.4158 
   28800   -101211.79   -91073.916    246.18512    20724    226108.88   -16.989659    210.43939   -255.03741   -6.3709645    433.51922    23.520787    22.174683      1.27799    434.79721   -120.08077   -4116.3324 
   28900   -101211.54   -91057.089    246.58773    20724    226087.36    17.151387   -43.432492    171.00962   -76.122962     433.6776    23.515373    22.169578    1.1988021     434.8764   -124.75025   -4133.0979 
   29000   -101285.76   -91080.319    247.82584    20724    225828.53   -189.08497   -138.35749   -205.36912   -223.52832     433.6575    23.502453    22.157398    1.2088493    434.86635   -136.90838   -4096.5391 
   29100   -101227.97   -91086.552    246.27118    20724    225841.47    70.698625     158.8272   -270.08009    323.34877    433.38573    23.510494    22.164979    1.3447361    434.73046   -130.44901   -4111.5178 
   29200   -101116.99   -91074.386    243.87167    20724    225697.86   -5.7819018    8.6254441   -119.23434    93.263193    433.38692    23.502986    22.157901    1.3441412    434.73106   -134.52644   -4119.9627 
   29300   -101212.81   -91105.946    245.43214    20724    225794.75   -25.375449   -186.65619   -209.56586     320.0957    433.58389     23.50269    22.157621    1.2456542    434.82955   -146.25624   -4074.4933 
   29400   -101196.13   -91086.517    245.49884    20724    225765.99   -21.261559   -101.21819   -143.19941    180.63292     433.5184    23.502968    22.157884    1.2783989     434.7968   -132.50541   -4109.3936 
   29500   -101186.71   -91060.215    245.90862    20724    225875.46   -3.0271796    33.153179   -130.41017    88.175448    433.52564    23.508469     22.16307    1.2747812    434.80042   -142.44721   -4124.6408 
   29600   -101145.72   -91039.898    245.40666    20724    225773.07    13.248906     154.6428    152.76267   -267.65875     433.3522    23.507843     22.16248    1.3615021     434.7137   -152.83232   -4139.3941 
   29700   -101020.63   -90979.749    243.82966    20724    225906.52    29.057406    4.8940604    133.76768   -51.489523    433.62201    23.507473    22.162131    1.2265951     434.8486   -160.38464   -4188.8557 
   29800   -101090.82   -90963.904    245.91893    20724    225715.44    25.102905   -139.53825    32.699081    182.14789    433.16262    23.509985      22.1645    1.4562909    434.61891   -164.09115   -4206.9818 
   29900   -101043.78   -90947.675    245.17085    20724    226027.85    20.253863   -10.127621    45.978279    24.910932    433.49237      23.5173    22.171396    1.2914127    434.78379   -164.32192   -4216.3749 
   30000   -101055.53   -90968.159    244.95859    20724    225892.73  -0.90664264    66.499292    71.875014   -141.09423    433.25807    23.516626     22.17076    1.4085667    434.66663   -175.42428   -4186.9843 
   30100   -101089.94   -90969.485    245.76216    20724    226001.95   -9.3362259   -54.872066    36.381084   -9.5176952    433.34233    23.520023    22.173963    1.3664347    434.70877   -180.32179   -4178.0262 
   30200   -101089.99   -90967.662    245.80744    20724    226005.89    37.087436    87.807402    53.824462   -30.369556    433.25883    23.522495    22.176293    1.4081869    434.66701   -189.30464   -4175.3496 
   30300   -101108.46   -90979.298    245.97341    20724    225756.16    24.848965    98.498227   -23.863326 -0.088006655    433.13733    23.512793    22.167146     1.468937    434.60626   -172.06919    -4188.613 
   30400   -101114.28   -90957.441    246.64554    20724    226072.85    12.774814   -11.338621   -162.06325    211.72631    433.31237    23.524526    22.178208    1.3814146    434.69379   -167.05648   -4206.8295 
   30500   -101125.46   -90968.512    246.64832    20724    225777.07   -42.068042   -176.61086   -109.65337    160.06011    433.14626    23.513639    22.167944    1.4644711    434.61073   -163.51422   -4207.6408 
   30600   -101169.26   -90895.854    249.47627    20724    225865.05   -72.226074   -232.68342    208.32295   -192.31776    433.26164    23.515088     22.16931    1.4067807    434.66842   -180.94685   -4259.4604 
   30700    -101039.8   -90873.515    246.87499    20724    225753.98   -90.381002   -169.03875   -77.139607   -24.964651    433.09529     23.51382    22.168115    1.4899546    434.58525   -171.55362   -4293.7138 
   30800   -101105.57    -90916.58    247.42646    20724    225821.11    41.687605    134.47217    -135.4656    126.05624    433.10187    23.517137    22.171242    1.4866648    434.58854   -138.67874   -4288.9385 
   30900   -101117.19   -90962.642     246.5899    20724    225728.61   -9.4748025    43.725922   -164.96195    92.811618    433.10956    23.512111    22.166504    1.4828185    434.59238   -151.47085   -4233.6992 
   31000   -101080.48   -90904.822    247.10253    20724    225674.36    22.303592    99.815356   -119.89124    86.986664    433.15047    23.508176    22.162794    1.4623644    434.61284   -145.09676   -4299.8151 
   31100   -101062.69   -90911.793    246.50126    20724    225824.64    -65.81559   -195.77706    87.752859   -89.422567    433.19351    23.514833     22.16907    1.4408427    434.63436   -151.39035   -4280.0805 
   31200   -101028.37   -90871.845    246.63801    20724    225815.97    80.322676    223.85828    100.55839   -83.448649    433.24089    23.513096    22.167432    1.4171554    434.65804    -162.5765   -4316.2308 
   31300   -101116.46   -90910.251    247.84437    20724    225839.73     42.95898    81.036583    97.270646   -49.430288    433.16489    23.516396    22.170543    1.4551551    434.62004   -156.16343   -4283.8522 
   31400   -101103.82    -90902.74    247.71992    20724    225724.09     63.13265   -19.890893   -149.95521    359.24405    432.95609    23.516043    22.170211    1.5595547    434.51565   -141.40954   -4312.7438 
   31500   -101012.99   -90925.708    244.95657    20724    225480.95   -1.1858383    162.11739   -85.471598   -80.203305    432.77995    23.508157    22.162775    1.6476266    434.42757    -126.4365   -4307.4493 
   31600   -101138.05   -90931.921    247.84253    20724    225580.96     59.78195    135.18533    34.388147    9.7723722    432.91912     23.50959    22.164126    1.5780399    434.49716    -147.5034    -4282.436 
   31700   -101083.24   -90919.249    246.81934    20724    225542.56   -59.461341   -130.44374   -87.709442    39.769159    432.98264    23.505864    22.160614    1.5462808    434.52892   -150.63171    -4288.857 
   31800   -101070.72   -90859.056    247.97706    20724    225780.37    47.448137    152.95865   -94.708015    84.093781    433.08991    23.515341    22.169548    1.4926472    434.58255     -137.303   -4362.1613 
   31900   -101001.13   -90864.178    246.16269    20724    225754.34    16.838645    87.940404   -159.95777     122.5333    433.07636    23.514353    22.168617    1.4994198    434.57578   -161.91395   -4331.8098 
   32000   -101031.44   -90772.007    249.13688    20724    225837.52    -16.75923    225.00273   -79.155586   -196.12483    433.04581    23.519514    22.173483    1.5146957     434.5605   -192.12931    -4392.504 
   32100   -101155.63   -90822.679    250.92223    20724    225796.46    -47.94165   -45.966604   -56.266632   -41.591714    433.20788    23.512976    22.167319    1.4336587    434.64154   -154.46769   -4380.7037 
   32200   -100927.67   -90779.886    246.42579    20724     225614.1    84.391987    79.518937     238.6548   -64.997778    432.94616    23.510582    22.165062    1.5645205    434.51068   -156.21899   -4433.9787 
   32300   -101121.14   -90830.518    249.89424    20724    225645.39   -137.28321   -198.94097   -83.130932   -129.77774    433.25332    23.503876     22.15874    1.4109386    434.66426   -133.71515   -4396.5558 
   32400   -100978.16   -90814.634    246.80803    20724     225644.5    23.935371     119.9421    91.881418    -140.0174    433.12497    23.507313     22.16198     1.475116    434.60008   -150.82627   -4402.6205 
   32500   -101007.28   -90788.818    248.14196    20724    225551.07    46.693959    200.49139     -57.1378   -3.2717147    433.05936    23.504225    22.159069    1.5079213    434.56728   -134.21438   -4449.1909 
   32600   -100935.88   -90768.099    246.91139    20724    225697.48    9.0703107   -130.65478    80.326857    77.538852    433.50347    23.499806    22.154903    1.2858654    434.78933   -156.89247   -4443.0195 
   32700   -100947.69    -90754.25    247.53437    20724    225796.24    1.4393943     249.6218    -37.75275   -207.55086    433.30384    23.510361    22.164854    1.3856811    434.68952   -157.24515   -4454.1309 
   32800   -101030.58   -90790.572    248.66534    20724    225670.55    50.254001     94.44646   -154.85174    211.16728    433.21734    23.506163    22.160896    1.4289287    434.64627   -142.99008     -4442.32 
   32900   -100903.27   -90738.244    246.84443    20724    225715.87   -20.012917    22.739051   -41.377775   -41.400025    433.25193    23.507585    22.162236    1.4116356    434.66356   -149.77827   -4482.6326 
   33000    -100886.1   -90792.346    245.11356    20724    225795.41     42.57992   -16.939628    62.903814    81.775574    433.24739    23.511849    22.166257    1.4139068    434.66129   -134.39297   -4444.5447 
   33100   -101001.86   -90772.853    248.39818    20724    225636.17   -30.448949   -100.70964   -26.348825    35.711623    432.99297    23.510461    22.164948    1.5411137    434.53409   -138.97684   -4461.8005 
   33200   -101054.85   -90778.627    249.54461    20724    225715.04    30.145657    -27.89012   -5.2564611    123.58355    433.11304     23.51131    22.165748    1.4810777    434.59412   -143.53955   -4454.3399 
   33300   -100947.04   -90720.459    248.33925    20724    225951.67   -4.7860466   -75.524813    144.01402   -82.847348    433.11148    23.523674    22.177404    1.4818601    434.59334   -154.79306   -4494.4507 
   33400   -100821.85   -90708.277    245.59504    20724    225656.35    28.808274    8.9750296    12.631039    64.818754    432.86617    23.514956    22.169186    1.6045125    434.47069   -180.12935   -4491.6316 
   33500   -100922.86   -90682.172    248.68172    20724    225930.86    55.599681    204.02949    11.561538   -48.791982    433.21966    23.519653    22.173614    1.4277709    434.64743   -191.38931   -4502.4111 
[...]
  491800   -95756.196    -84058.22     284.0701    20724     221541.2   -11.180484   -119.12957    247.86281    -162.2747    425.26729    23.506798    22.161494    5.4039553    430.67124    5388.0508   -23829.514 
  491900   -95776.545   -84035.294    285.12098    20724    221385.57   -71.048999   -154.37222    43.146378   -101.92116    424.52214    23.519154    22.173143    5.7765296    430.29867    5369.6312   -23837.431 
  492000   -95740.657   -84030.678    284.36159    20724    221311.96   -114.54912   -19.939746   -139.83791   -183.86971    424.33889    23.520321    22.174243    5.8681528    430.20705    5392.1089   -23866.413 
  492100   -95695.855   -84017.501    283.59361    20724    221202.31   -23.072325   -105.64117   -51.662159    88.086352    424.32072    23.514997    22.169224    5.8772418    430.19796    5366.2772   -23862.049 
  492200   -95729.221   -83969.275    285.57497    20724    221467.48   -55.566678    66.502728    80.059655   -313.26242    425.01991    23.509726    22.164255    5.5276462    430.54755    5358.2367   -23896.272 
  492300   -95607.078   -83994.895    281.98674    20724    221206.86     51.74733   -57.728949    20.844888    192.12605    425.21672     23.49045    22.146082    5.4292382    430.64596    5368.0319   -23895.331 
  492400   -95674.584   -84000.064     283.5005    20724    221505.44    34.388012   -148.98224   -9.9298113    262.07609    425.16403    23.507755    22.162397    5.4555851    430.61961    5340.1595   -23852.883 
  492500   -95718.244   -84023.135    284.00046    20724    221661.01     63.93101     296.7597   -149.86475    44.898087    425.34985    23.510871    22.165335    5.3626725    430.71253    5371.3594   -23858.278 
  492600   -95752.447   -83970.897    286.09959    20724    221575.39    5.6900687    61.778266    73.642963   -118.35102     425.5094    23.501923    22.156898    5.2828991     430.7923    5339.2231    -23879.98 
  492700    -95727.48   -84020.871    284.27976    20724    221154.12   -16.568473   -44.471375     197.2849   -202.51895    424.83804    23.498116    22.153309    5.6185799    430.45662    5369.8305   -23878.369 
  492800   -95679.523   -84029.386     282.9084    20724    221443.04   -32.850872    159.29215   -147.65414   -110.19062    424.68049    23.517821    22.171887    5.6973568    430.37784    5362.7293   -23852.962 
  492900   -95841.032    -84078.38    285.64068    20724    221371.47   -93.965516     39.30346   -210.32701     -110.873    424.70777    23.513265    22.167591    5.6837134    430.39149    5374.6893   -23816.695 
  493000   -95656.416   -84043.722    281.99914    20724    220967.71   -70.107124   -176.51778    -202.7256      168.922     424.5721    23.495565    22.150905    5.7515513    430.32365    5367.7607   -23861.115 
  493100   -95819.312   -84060.479    285.54795    20724    221346.34   -2.8465074   -35.109213    -132.3478     158.9175    425.01393     23.50346    22.158348    5.5306369    430.54456    5374.7351   -23845.684 
  493200   -95733.754   -84047.255     283.7914    20724    221477.94   -100.88553   -225.55646     70.62386   -147.72399    424.96546    23.511787    22.166198    5.5548716    430.52033     5365.436   -23841.474 
  493300   -95780.051    -84033.15    285.25817    20724    221465.63    58.096365    9.2046586    208.73606   -43.651621    424.68408    23.518921    22.172924    5.6955587    430.37964    5366.0871   -23865.577 
  493400   -95717.748   -84031.553    283.78403    20724    221709.61   -47.495912   -199.07285   -67.744056    124.32917    424.73444    23.530477    22.183819    5.6703788    430.40482    5367.5443   -23854.795 
  493500   -95769.853   -84043.669    284.75511    20724    221374.71    -165.6489   -264.33764    1.6196243   -234.22867    424.66709    23.514563    22.168815    5.7040528    430.37115    5364.8191   -23848.128 
  493600    -95534.68   -84008.144    279.90691    20724    221620.16    34.870443   -39.422761    11.586113    132.44798    424.60528    23.529308    22.182716    5.7349623    430.34024    5374.0236   -23897.429 
  493700   -95714.652   -84011.415    284.19788    20724     221117.8   -84.313206    121.75859   -122.57704   -252.12117    423.97091    23.520202    22.174131    6.0521462    430.02305    5376.0991   -23909.078 
  493800   -95549.842   -84056.425    279.10267    20724    220994.63    70.854719     201.3212    21.567378    -10.32442    424.18704    23.507659    22.162306    5.9440808    430.13112    5378.9918   -23879.601 
  493900    -95748.26    -84032.58    284.50001    20724    221137.18    6.4955603   -63.929551    58.680186    24.736045    424.58294    23.504273    22.159114    5.7461312    430.32907     5359.654   -23881.101 
  494000   -95801.683   -84028.893    285.88687    20724    221158.08   -34.825969    -87.28666   -16.434002  -0.75724496    424.51322    23.507314    22.161981    5.7809922    430.29421    5390.1382   -23911.766 
  494100   -95674.884   -84000.821    283.48942    20724    221101.92   -12.687501    11.720156   -36.851451   -12.931208    424.74361    23.497954    22.153157    5.6657958     430.4094    5381.6565   -23937.079 
  494200   -95706.608   -84011.614    283.99769    20724    221147.45   -27.228619   -15.400663   -27.231725    -39.05347    425.02864    23.492492    22.148007    5.5232777    430.55192    5411.8155   -23954.285 
  494300   -95741.921   -83967.362    285.92981    20724    221345.77    7.8333907    187.39759    1.7436315   -165.64105    424.88907    23.506883    22.161575    5.5930651    430.48213    5381.2445   -23964.838 
  494400   -95669.447    -83960.69    284.33191    20724    221157.37    104.84049    88.891455    254.44663   -28.816602    424.53501    23.506673    22.161376    5.7700929    430.30511    5362.1103    -23964.43 
  494500   -95674.526   -83940.079    284.95575    20724    221301.79   -114.15634   -113.17732   -304.86832    75.576632    424.47446    23.516024    22.170193    5.8003717    430.27483    5372.2651   -23980.738 
  494600   -95574.231   -83938.723    282.55314    20724     221548.3   -15.069501    180.90061    64.557279   -290.66639    424.60805    23.525416    22.179047    5.7335762    430.34162     5372.145   -23979.917 
  494700   -95657.831   -83968.551    283.85892    20724    221365.26    -18.93995   -123.15099   -49.152647    115.48379    424.47607    23.519351     22.17333    5.7995658    430.27563    5393.1987    -23979.63 
  494800   -95613.084   -83931.783    283.66518    20724    221213.28    31.044034    224.70417    67.706649   -199.27872    424.57451     23.50855    22.163147    5.7503453    430.32485    5403.6792   -24036.659 
  494900    -95582.49   -83913.754    283.36005    20724    221391.84    77.220028    83.449806    131.63647    16.573811     424.5065    23.519921    22.173866    5.7843513    430.29085    5383.6472   -24032.084 
  495000   -95583.259   -83899.079    283.73509    20724    221199.38   -38.757162    41.490045    -50.86142   -106.90011     424.3899    23.512924     22.16727    5.8426488    430.23255     5403.194   -24068.108 
  495100   -95571.136   -83898.349    283.45842    20724    221409.63     165.8282    201.91239    58.816467    236.75575    424.59551      23.5184    22.172432    5.7398471    430.33535    5394.5657   -24064.139 
  495200   -95476.018   -83851.458    282.28729    20724    221323.75    6.8846351   -65.762625   -106.97405    193.39058    424.81625    23.507729    22.162372    5.6294727    430.44573     5402.252   -24115.557 
  495300   -95672.711   -83858.274    286.89821    20724    221304.23    6.4623309   -161.19647    234.54216   -53.958696    424.34666    23.519695    22.173653    5.8642702    430.21093    5409.3778   -24118.811 
  495400   -95488.703   -83816.563    283.44272    20724    221543.19    40.858376    199.73914    130.33722   -207.50124    424.08441    23.539664     22.19248    5.9953942    430.07981    5384.6388   -24128.076 
  495500   -95621.436   -83815.422    286.69369    20724    221860.94   -129.27554   -361.76563   -88.204655    62.143658    424.53419    23.544057    22.196622    5.7705056    430.30469    5413.5922    -24143.93 
  495600   -95381.186   -83769.695    281.96992    20724    221646.71    9.5258231    225.60442   -34.066919   -162.96004    424.21484    23.541543    22.194251    5.9301801    430.14502    5399.6882   -24189.034 
  495700   -95367.073   -83757.227    281.92999    20724    221223.75    81.445194    188.86718    8.9397145    46.528685    423.93865    23.526731    22.180286    6.0682727    430.00693    5367.8628   -24189.789 
  495800   -95540.867   -83819.981    284.62645    20724    221476.93    2.6947013    15.449599    321.82888   -329.19438    424.03904    23.537403    22.190348    6.0180815    430.05712    5384.5888    -24134.81 
  495900   -95474.266   -83846.571    282.36342    20724    221509.39    33.651698   -135.75506    173.39771    63.312438    424.04567    23.538944      22.1918    6.0147655    430.06043    5414.3825   -24140.599 
  496000   -95621.189   -83829.231    286.35235    20724    221412.06   -29.334003    59.482739   -31.871916   -115.61283     423.6205    23.545578    22.198056    6.2273516    429.84785    5405.4665   -24150.823 
  496100   -95563.316   -83847.396    284.50587    20724    221448.85   -45.973083   -105.09362    128.17525   -161.00088    423.67268    23.546085    22.198533    6.2012583    429.87394    5406.9728   -24132.601 
  496200   -95575.407   -83864.645    284.38058    20724    221432.46    8.5511199   -123.97624    100.81667    48.812933    423.70603    23.544286    22.196838    6.1845844    429.89062    5387.9861   -24100.939 
  496300   -95494.121   -83862.225    282.46544    20724    221343.78    38.609743    254.42275    25.808361   -164.40188     423.6545    23.541003    22.193742      6.21035    429.86485    5396.8873   -24121.416 
  496400   -95605.988   -83894.907    284.38835    20724    221367.29    52.433684    250.30594    57.977347   -150.98224    423.73307    23.540071    22.192863    6.1710633    429.90414     5398.805   -24093.013 
  496500    -95484.09   -83828.517    283.04042    20724    221311.67    29.222833    11.645738    108.89376   -32.870996    423.88296    23.532951    22.186151    6.0961203    429.97908    5376.1338   -24134.968 
  496600   -95508.883   -83806.381    284.18001    20724     221359.3   -34.785516   -83.152726    289.98376   -311.18758    423.70393    23.540455    22.193225    6.1856333    429.88957    5384.3642    -24162.96 
  496700   -95573.005   -83858.655    284.46774    20724    221291.41    12.954065   -178.29953    212.87722    4.2845057    424.03303     23.52771    22.181209    6.0210833    430.05412     5396.755   -24129.786 
  496800   -95533.502   -83879.865    282.99338    20724    221105.43    112.36111    269.74515   -237.69182    305.03001    423.84753    23.522967    22.176738    6.1138369    429.96136      5408.41   -24131.965 
  496900   -95523.382   -83821.011    284.17684    20724    221043.93   -8.3438901    65.499932    63.419658   -153.95126    424.15906    23.511056    22.165509    5.9580696    430.11713    5379.2256   -24160.431 
  497000   -95523.726   -83851.818    283.43708    20724     221174.1    83.518405    89.311033    130.74845    30.495728    424.49133    23.508771    22.163355     5.791936    430.28326    5387.0694   -24137.167 
  497100   -95564.487   -83891.588    283.46114    20724    221151.16   -33.688187    52.436968   -52.610622   -100.89091    424.29483    23.512995    22.167337    5.8901857    430.18501    5390.5355    -24099.86 
  497200   -95527.913   -83878.956    282.87972    20724    221457.64    37.664194    42.252998   -47.596119     118.3357    424.71757     23.51757     22.17165    5.6788171    430.39638    5414.6805   -24129.655 
  497300   -95550.907   -83895.163    283.04455    20724    221208.75    2.6831064    39.602023    259.86811   -291.42082    424.61591    23.507164    22.161839    5.7296445    430.34556    5424.7388   -24131.221 
  497400   -95605.378   -83858.363    285.26094    20724    221302.54    67.318224   -41.081579    42.565478    200.47077    424.69363    23.509995    22.164509    5.6907838    430.38442    5410.9167   -24154.009 
  497500    -95546.41   -83857.046    283.86097    20724    221411.14   -44.548391   -42.492177   -330.21842    239.06543    424.83519    23.511845    22.166252    5.6200056    430.45519    5418.7779   -24156.916 
  497600   -95591.748   -83814.958    285.98399    20724    221450.64    34.250836   -233.61616    203.12461    133.24406    424.61477    23.520044    22.173983    5.7302162    430.34498    5409.9205   -24195.119 
  497700   -95508.867   -83811.438    284.05683    20724       221458   -12.100143    50.438691    114.00999   -200.74911    424.70917    23.517821    22.171887     5.683016    430.39218    5406.3921   -24193.469 
  497800   -95663.913     -83868.2    286.44351    20724    221381.42   -161.31368   -259.72157    41.689801   -265.90926    424.65196    23.515338    22.169546    5.7116185    430.36358    5440.2842   -24169.639 
  497900   -95444.043   -83835.084    281.90844    20724    221348.39    81.259742    158.91132    294.57153   -209.70362    424.99869    23.503991    22.158848    5.5382529    430.53695    5416.9826   -24191.367 
  498000    -95600.95    -83857.07    285.18482    20724    221670.76   -48.529635   -203.04654    32.968449    24.489187    425.21377    23.515151    22.169369    5.4307162    430.64448    5446.1012   -24185.745 
  498100   -95501.612   -83819.527    283.68422    20724    221582.09    13.223705    98.587485   -180.15178    121.23541    425.04606    23.515085    22.169307      5.51457    430.56063    5442.8973   -24225.681 
  498200   -95474.736   -83805.976    283.36064    20724    221561.86    30.092235   -22.334789   -349.90433    462.51582    424.91356    23.517677    22.171751    5.5808204    430.49438    5427.9953   -24224.586 
  498300   -95458.128   -83823.816    282.52411    20724    221452.38    20.121965    -162.1095    35.484134    186.99126    425.00148    23.509434    22.163979    5.5368609    430.53834    5422.8667   -24207.513 
  498400   -95591.778   -83855.587    284.99812    20724    221605.64    -66.45319    61.136616   -173.64181    -86.85438    425.00397    23.517499    22.171583    5.5356153    430.53958    5427.2364    -24172.77 
  498500   -95585.704   -83811.568    285.91956    20724    221587.75    58.678364    129.97194    6.1874966    39.875655     425.0198    23.516111    22.170275    5.5276983     430.5475    5415.3734   -24214.514 
  498600   -95511.479    -83811.56    284.11729    20724    221575.27    60.079981    129.29927   -103.63755    154.57823    425.45632    23.503383    22.158275     5.309441    430.76576    5414.9939   -24211.524 
  498700   -95397.056    -83778.87    282.13251    20724    221665.67    52.230177    129.30151    61.053154   -33.664137    425.75398    23.499957    22.155045    5.1606091    430.91459    5409.0734   -24237.443 
  498800   -95500.513   -83774.009    284.76289    20724    221608.91   -61.939789    1.3244229     -325.972    138.82821    425.61021    23.500917     22.15595    5.2324957     430.8427    5409.9819   -24242.416 
  498900   -95488.419   -83768.233    284.60943    20724    221735.95     9.389963   -299.30005    248.92556    78.544379     425.4917    23.510926    22.165386    5.2917499    430.78345    5411.2272   -24248.487 
  499000   -95541.594   -83836.009    284.25488    20724    221788.15   -68.254997   -81.769368   -33.593794   -89.401829     425.3295    23.518176    22.172221    5.3728496    430.70235    5422.4947   -24189.306 
  499100   -95506.188   -83832.529     283.4796    20724    221617.28    56.690026    25.446929   -58.383458    203.00661    424.63065    23.528452    22.181909    5.7222727    430.35293    5438.9788   -24222.955 
  499200   -95572.559   -83806.746    285.71744    20724    221515.86   -28.644228   -116.71235    -208.7567    239.53636    424.51939     23.52615    22.179739    5.7779045     430.2973    5449.9222    -24260.74 
  499300   -95616.605   -83793.241    287.11501    20724    221642.35    -28.47773    83.637783   -165.67764   -3.3933293    424.84059    23.523968    22.177682    5.6173049     430.4579      5431.83   -24253.646 
  499400    -95598.77   -83837.465    285.60797    20724    221834.48   -70.840192    -47.53842   -56.918987   -108.06317    424.90368    23.532415    22.185645    5.5857617    430.48944    5440.6733   -24211.127 
  499500   -95582.386   -83827.068    285.46258    20724    221743.08     130.2485    305.74647   -108.38165    193.38067    424.85707    23.528857    22.182291    5.6090672    430.46613    5420.7943   -24215.516 
  499600   -95691.663   -83824.892    288.16908    20724     221925.5   -94.476834   -158.32798   -69.139404   -55.963116    424.99519    23.534708    22.187807    5.5400069    430.53519    5438.2915   -24218.767 
  499700   -95526.567   -83850.425    283.53988    20724    221401.29    49.547739   -47.657138    18.618452     177.6819    424.31433    23.525748     22.17936    5.8804329    430.19477    5433.8252   -24215.268 
  499800   -95553.431   -83803.006    285.34376    20724    221431.37   -79.288544    28.203126   -250.59599   -15.472772    424.27071    23.528555    22.182006    5.9022433    430.17296    5440.7915    -24265.65 
  499900   -95556.287    -83814.19    285.14152    20724    221461.71     11.23806    221.79794   -26.930876   -161.15288    424.38892     23.52689    22.180437    5.8431396    430.23206    5432.4363   -24248.336 
  500000   -95550.671   -83823.778    284.77234    20724    221464.72    14.550154    194.33419   -124.89039    -25.79333    424.44548    23.525482    22.179109    5.8148585    430.26034     5453.936   -24263.313 
Loop time of 52558.6 on 32 procs for 500000 steps with 20724 atoms

Performance: 1.644 ns/day, 14.600 hours/ns, 9.513 timesteps/s
97.2% CPU use with 32 MPI tasks x no OpenMP threads

MPI task timing breakdown:
Section |  min time  |  avg time  |  max time  |%varavg| %total
---------------------------------------------------------------
Pair    | 6406.8     | 9177.9     | 13000      |2564.4 | 17.46
Bond    | 0.4344     | 0.5023     | 0.59018    |   5.8 |  0.00
Kspace  | 8660.8     | 12505      | 15292      |2211.2 | 23.79
Neigh   | 8368.2     | 10386      | 12180      |1386.8 | 19.76
Comm    | 397.41     | 3865       | 7621.8     |4321.7 |  7.35
Output  | 6.4291     | 46.098     | 74.638     | 374.5 |  0.09
Modify  | 12969      | 16535      | 21485      |2467.0 | 31.46
Other   |            | 43.65      |            |       |  0.08

Nlocal:    647.625 ave 693 max 590 min
Histogram: 1 1 1 5 9 4 3 1 1 6
Nghost:    7239.84 ave 7889 max 6776 min
Histogram: 1 9 6 3 2 1 1 4 3 2
Neighs:    237836 ave 269463 max 208791 min
Histogram: 1 1 8 9 2 2 1 1 1 6
FullNghs:  475673 ave 540553 max 418085 min
Histogram: 1 1 8 10 1 1 3 0 2 5

Total # of neighbors = 15221539
Ave neighs/atom = 734.488
Ave special neighs/atom = 2
Neighbor list builds = 500000
Dangerous builds not checked
write_data production.R1
PPPM initialization ...
  extracting TIP4P info from pair style
WARNING: Using 12-bit tables for long-range coulomb (../kspace.cpp:316)
  G vector (1/distance) = 0.345856
  grid = 400 48 48
  stencil order = 5
  estimated absolute RMS force accuracy = 0.000403033
  estimated relative force accuracy = 1.21372e-06
  using double precision FFTs
  3d grid and FFT values/proc = 67260 38400
write_restart restartproduction.R1
PPPM initialization ...
  extracting TIP4P info from pair style
WARNING: Using 12-bit tables for long-range coulomb (../kspace.cpp:316)
  G vector (1/distance) = 0.345856
  grid = 400 48 48
  stencil order = 5
  estimated absolute RMS force accuracy = 0.000403033
  estimated relative force accuracy = 1.21372e-06
  using double precision FFTs
  3d grid and FFT values/proc = 67260 38400
Total wall time: 14:35:59
