LAMMPS (30 Jul 2016)
# Sets up LAMMPS simulation for transient melting of ice: TIP4P/Ice
# Ensure cold thermostats do not move
# Thinbox: 16x1x1
# Defects
# Order param l=2

#### setting MD parameters ####
units real
boundary p p p
atom_style full

# read ice box in restart file
#read_data ice-ih-restart.data
read_restart restart.state
  orthogonal box = (0.243566 0.0131431 0.0123909) to (435.832 23.5181 22.1721)
  32 by 1 by 1 MPI processor grid
  20736 atoms
  13824 bonds
  6912 angles
  2 = max # of 1-2 neighbors
  1 = max # of 1-3 neighbors
  1 = max # of 1-4 neighbors
  2 = max # of special neighbors

#replicate 16 boxes, 16x1x1


#### force field definition ####
pair_style      lj/cut/tip4p/long 2 1 1 1 0.1577 10.0
pair_modify	tail yes

kspace_style	pppm/tip4p 1.0e-6

bond_style	harmonic
angle_style	harmonic
dihedral_style	none
improper_style	none

bond_coeff	1 450.0 0.9572
angle_coeff	1 55.0 104.52


# reset pair coeff
pair_coeff	* * 0.0 0.0

#OO
pair_coeff	2 2 0.21085 3.1668
#OH
pair_coeff	* 1 0.0000 0.0000

neighbor        2.0 bin
neigh_modify    every 1 delay 1 check no

timestep	2.0
fix		constraints all shake 0.000001 20 0 b 1 a 1
  0 = # of size 2 clusters
  0 = # of size 3 clusters
  0 = # of size 4 clusters
  6912 = # of frozen angles

group water type 1 2
20736 atoms in group water

#*********** SIMULATION PARAMETER TO ADJUST ****************
#Box dimensions
variable lx equal lx
variable ly equal ly
variable lz equal lz

### Temperature of the hot and cold regions ####
variable thi equal 375
variable tlo equal 215
variable runpressure equal 0.986923
# Configuration equilibrated in density and temperature

# Define dx here

variable lx equal lx
variable ly equal ly
variable lz equal lz

variable xlo equal xlo
variable xhi equal xhi


variable dx equal 2.0

### ADD IN DEFECTS AT THE CENTRE OF THE HOT THERMOSTAT ###
variable x1 equal ${lx}/4.0
variable x1 equal 435.588068755598/4.0
variable y1 equal ${ly}/2.0
variable y1 equal 23.5049137476792/2.0
variable z1 equal ${lz}/2.0
variable z1 equal 22.1597181204267/2.0

region kill1 sphere ${x1} ${y1} ${z1} 3
region kill1 sphere 108.897017188899 ${y1} ${z1} 3
region kill1 sphere 108.897017188899 11.7524568738396 ${z1} 3
region kill1 sphere 108.897017188899 11.7524568738396 11.0798590602133 3
delete_atoms region kill1 compress no bond yes mol yes
Deleted 15 atoms, new total = 20721
Deleted 10 bonds, new total = 13814
Deleted 5 angles, new total = 6907




variable thip equal ${thi}*2.0/3.0
variable thip equal 375*2.0/3.0
variable tlop equal ${tlo}*2.0/3.0
variable tlop equal 215*2.0/3.0
variable cbl equal ${lx}*3.0/4.0-${dx}
variable cbl equal 435.588068755598*3.0/4.0-${dx}
variable cbl equal 435.588068755598*3.0/4.0-2
variable cbh equal ${lx}*3.0/4.0+${dx}
variable cbh equal 435.588068755598*3.0/4.0+${dx}
variable cbh equal 435.588068755598*3.0/4.0+2
variable hbl equal ${lx}*1.0/4.0-${dx}
variable hbl equal 435.588068755598*1.0/4.0-${dx}
variable hbl equal 435.588068755598*1.0/4.0-2
variable hbh equal ${lx}*1.0/4.0+${dx}
variable hbh equal 435.588068755598*1.0/4.0+${dx}
variable hbh equal 435.588068755598*1.0/4.0+2


#***************************************************
## EQUILIBRATION PERIOD - to reach the steady state ###
#run 0

#reset the timestep to start your production run
reset_timestep 0

# define a group to perform averages
#group s1 type 1
###*** SYSTEM THERMOSTATTING: HOT and COLD regions ***###

fix NVE all nve
fix PRESS all press/berendsen aniso ${runpressure} ${runpressure} 500000 couple yz
fix PRESS all press/berendsen aniso 0.986923 ${runpressure} 500000 couple yz
fix PRESS all press/berendsen aniso 0.986923 0.986923 500000 couple yz


### Apply THERMOSTATS ###

#set up the "hot region" in the middle of the box
region hot block ${hbl} ${hbh} 0 ${ly} 0 ${lz} units box
region hot block 106.897017188899 ${hbh} 0 ${ly} 0 ${lz} units box
region hot block 106.897017188899 110.897017188899 0 ${ly} 0 ${lz} units box
region hot block 106.897017188899 110.897017188899 0 23.5049137476792 0 ${lz} units box
region hot block 106.897017188899 110.897017188899 0 23.5049137476792 0 22.1597181204267 units box


#set up the "cold region" at the left end of the box
region cold block ${cbl} ${cbh} 0 ${ly} 0 ${lz} units box
region cold block 324.691051566698 ${cbh} 0 ${ly} 0 ${lz} units box
region cold block 324.691051566698 328.691051566698 0 ${ly} 0 ${lz} units box
region cold block 324.691051566698 328.691051566698 0 23.5049137476792 0 ${lz} units box
region cold block 324.691051566698 328.691051566698 0 23.5049137476792 0 22.1597181204267 units box

#set up the "cold region" at the right end of the box
#region cold2 block ${h2bl} ${xhi} 0 ${ly} 0 ${lz} units box


#Cold regions  unification
#region cold union 2 cold1 cold2 units box

#Create group of cold molecules
####group cool_ice region cold
####group cool_ice include molecule

####compute cold_temp cool_ice temp
####fix cold_rescale water temp/rescale 1 ${tlo} ${tlo} 0.0001 1.0
####fix_modify cold_rescale temp cold_temp

#this calculates the temperature using only the atoms in the "hot region"
#compute hot_temp all temp/region hot

# calculate the temperature using only WATER in the "hot region"
compute hot_temp water temp/region hot

#this calculates the temperature using only WATER in the "cold region"
compute cold_temp water temp/region cold


#set up a basic velocity rescale for the hot region WATER with thip
fix hot_rescale water temp/rescale 1 ${thip} ${thip} 1.0 1.0
fix hot_rescale water temp/rescale 1 250 ${thip} 1.0 1.0
fix hot_rescale water temp/rescale 1 250 250 1.0 1.0
#change the thermostat to only act on the "hot region"
#this is done by passing it the "hot temp" compute that we defined above
fix_modify hot_rescale temp hot_temp

#set up a basic velocity rescale for the cold region
fix cold_rescale water temp/rescale 1 ${tlop} ${tlop} 1.0 1.0
fix cold_rescale water temp/rescale 1 143.333333333333 ${tlop} 1.0 1.0
fix cold_rescale water temp/rescale 1 143.333333333333 143.333333333333 1.0 1.0
#change the thermostat to only act on the "cold region"
#this is done by passing it the "cold temp" compute that we defined above
fix_modify cold_rescale temp cold_temp

### Ensure MOMENTUM CONSERVATION ###

#ensure that linear momentum is conserved despite the "thermostatting" by velocity rescaling
fix cons_mom all momentum 1 linear 1 1 1


thermo 100
thermo_style custom step pe etotal temp atoms vol press pxx pyy pzz lx ly lz xlo xhi f_cold_rescale f_hot_rescale

group ox type 2
6907 atoms in group ox
group hy type 1
13814 atoms in group hy
compute KE all ke/atom
variable TEMP atom c_KE*4186.8/(1.3806488*6.02214129)

compute cc1 all chunk/atom bin/1d x center 2 units box
#fix TPROFILE all ave/chunk 1 500 500 cc1 v_TEMP density/number file temp.dat
fix TPROFILEox ox ave/chunk 1 500 500 cc1 v_TEMP density/number file temp-ox.dat
fix TPROFILEhy hy ave/chunk 1 500 500 cc1 v_TEMP density/number file temp-hy.dat

compute orderparam ox orientorder/atom degrees 1 2 nnn 4 cutoff 3.5
compute cc2 ox chunk/atom bin/1d x center 2 units box
#fix ORDERPARAM all ave/chunk 1 500 500 cc2 c_orderparam[1] file order-param.dat
fix ORDERPARAM all ave/chunk 1 500 500 cc2 c_orderparam[1] file order-param.dat

restart 50000 config.restart

run 500000
PPPM initialization ...
  extracting TIP4P info from pair style
WARNING: Using 12-bit tables for long-range coulomb (../kspace.cpp:316)
  G vector (1/distance) = 0.345548
  grid = 405 48 48
  stencil order = 5
  estimated absolute RMS force accuracy = 0.000406942
  estimated relative force accuracy = 1.22549e-06
  using double precision FFTs
  3d grid and FFT values/proc = 67260 38880
Neighbor list info ...
  2 neighbor list requests
  update every 1 steps, delay 1 steps, check no
  max neighbors/atom: 2000, page size: 100000
  master list distance cutoff = 12.3154
  ghost atom cutoff = 12.3154
  binsize = 6.1577 -> bins = 71 4 4
Memory usage per processor = 12.7845 Mbytes
Step PotEng TotEng Temp Atoms Volume Press Pxx Pyy Pzz Lx Ly Lz Xlo Xhi cold_res hot_resc 
       0   -103776.85   -94945.445    214.49035    20721    226881.39   -149.06127   -60.806014   -265.33942   -121.03838    435.58807    23.504914    22.159718   0.24356562    435.83163            0            0 
     100   -103651.49   -94681.149    217.86457    20721    226591.36    25.424913    197.24893    8.7545431   -129.72873    435.39744    23.495027    22.150397   0.33887942    435.73632    -1.690539   -267.88201 
     200    -103573.7   -94606.154    217.79671    20721    226426.21    37.831615   -28.789314    214.50153   -72.217371    435.37589    23.487045    22.142872   0.34965264    435.72555   -8.1941046   -340.48373 
     300   -103422.35   -94541.874    215.68198    20721     226613.4    55.402785    231.13486    115.03205   -179.95856     435.3576    23.497245    22.152488   0.35879942     435.7164   -7.7721151   -401.27215 
     400    -103524.2   -94470.003    219.90132    20721    226409.02    14.829497   -12.343955     1.694782    55.137666    435.13191    23.492737    22.148238   0.47164665    435.60355   -8.4936118   -477.58617 
     500   -103503.29   -94424.312    220.50305    20721    226610.42   -36.414353   -26.468408   -117.98813    35.213483    435.28646     23.49901    22.154153   0.39436954    435.68083   -8.0618608   -515.69705 
     600   -103446.28   -94349.337    220.93947    20721    226515.48    13.269646    35.548126   -51.836159    56.096971    435.35847    23.492144    22.147679   0.35836538    435.71683   -33.634217   -570.64118 
     700   -103427.91   -94382.343    219.69171    20721    226535.87   -8.8886224   -52.513744   -26.609571    52.457447    435.20453    23.497356    22.152593   0.43533349    435.63987   -3.8530182   -567.32797 
     800   -103462.44   -94359.842    221.07672    20721    226625.61    13.790105    21.830537    92.610778   -73.070999    435.25171    23.500736    22.155779   0.41174524    435.66345   -13.077592   -581.33878 
     900    -103396.5   -94300.347    220.92011    20721    226568.95   -2.6611356    46.917343     209.7264   -264.62715    435.39488    23.493934    22.149367   0.34016131    435.73504   -12.656967   -640.69009 
    1000   -103374.67   -94270.987    221.10318    20721    226505.19    81.210067    270.20568    15.635913    -42.21139    435.19639    23.495985      22.1513   0.43940519    435.63579   -13.404156   -674.92826 
    1100    -103365.3    -94221.49    222.07756    20721    226502.29   -23.027482    4.3011731    36.950763   -110.33438    435.40493    23.490207    22.145853   0.33513429    435.74007    -20.40714   -715.10469 
    1200   -103348.41   -94224.749     221.5883    20721     226580.2     40.69176    185.08437   -175.10256    112.09347     435.3762    23.495022    22.150392   0.34950022     435.7257    14.557697   -748.59869 
    1300   -103336.22    -94174.22    222.51935    20721    226606.32   -43.665741   -184.72236   -222.25151    275.97665     435.3628    23.496738     22.15201   0.35619997      435.719    2.8245154   -783.99917 
    1400   -103332.18    -94151.74    222.96732    20721    226489.45   -62.411786   -95.410511    56.292301   -148.11715    435.18707     23.49542    22.150768    0.4440648    435.63114    13.394866   -819.34544 
    1500   -103381.35   -94160.269    223.95442    20721     226692.4    73.208127   -55.710186    382.79399   -107.45943    435.38753    23.500532    22.155588   0.34383684    435.73136   -6.1098481   -793.67336 
    1600    -103297.5   -94100.873    223.36032    20721     226516.8    17.800803    23.196691   -111.38862    141.59434    435.32314    23.493166    22.148643   0.37603111    435.69917    -13.83467    -848.8114 
    1700   -103364.74   -94118.946    224.55451    20721    226582.95   -13.537649    54.972446   -37.379285    -58.20611    435.22507    23.499243    22.154372   0.42506491    435.65014    -6.249287    -837.3381 
    1800   -103301.18   -94036.044    225.02442    20721    226671.99    45.037948    92.435678    97.310131   -54.631964     435.2986    23.501875    22.156853   0.38830159     435.6869   -15.676921    -910.5605 
    1900   -103256.97   -94048.943    223.63728    20721    226576.92   -63.825757    66.906922   -384.40049     126.0163    435.28545    23.497301    22.152541    0.3948773    435.68032   -4.0916908   -906.25298 
    2000   -103325.46     -94090.9    224.28179    20721    226757.17   -11.700849   -138.65154   -44.394913     147.9439    435.45098    23.502177    22.157138   0.31210884    435.76309    4.5173113   -873.97737 
    2100    -103135.3    -94048.68    220.68862    20721    226498.81    15.634698   -112.54151    119.13783    40.307772    435.08093    23.498771    22.153927   0.49713547    435.57806  -0.38685645    -920.2453 
    2200   -103211.59   -94004.986    223.60282    20721    226660.05    36.485174    97.061895    238.70675   -226.31312    435.34918     23.49989    22.154982   0.36300962    435.71219   -4.9028287   -956.48793 
    2300   -103116.98   -93963.938    222.30199    20721    226505.48    91.376585    69.896459    182.10096    22.132335    435.11613    23.498167    22.153357   0.47953375    435.59567   -5.9861192   -1003.5553 
    2400   -103105.53   -93922.838    223.02212    20721    226510.47    28.352347    49.217076   -6.9691959    42.809162    435.15396    23.497404    22.152638   0.46061903    435.61458    -30.24817   -1018.9132 
    2500      -103126   -93836.384    225.61888    20721    226567.31   -47.804969    -14.27498   -59.982613   -69.157315    435.40213    23.493654    22.149102   0.33653269    435.73867   -39.420756   -1092.6148 
    2600    -103180.4   -93868.999    226.14795    20721    226604.18     10.49044    204.51962   -50.326804    -122.7215    435.12786    23.502969    22.157885   0.47367125    435.60153   -33.081932   -1070.0362 
    2700    -103119.9   -93843.829    225.28992    20721    226511.69   -5.8689604    66.219175    32.642773   -116.46883    435.30812    23.493306    22.148775   0.38354125    435.69166   -31.539949   -1098.6261 
    2800   -103143.24   -93829.226    226.21133    20721    226503.44    50.750065    83.134832    64.037557    5.0778075    435.31385    23.492724    22.148226   0.38067683    435.69452    1.5074281   -1151.0999 
    2900   -103076.71   -93795.022    225.42625    20721    226579.25     99.68959    211.94852    59.225879    27.894375    435.34346    23.495856    22.151179   0.36587019    435.70933   -14.093324   -1170.4595 
    3000   -103031.33   -93740.589    225.64632    20721    226516.72    42.801822    95.413146   -139.73609    172.72841    435.25464     23.49501    22.150381   0.41028093    435.66492   -2.4146061   -1235.5564 
    3100   -103041.57   -93715.065    226.51473    20721    226504.82   -72.170831   -237.76097    140.06775   -118.81927    435.36699    23.491362    22.146942   0.35410646    435.72109    7.7466162   -1266.6024 
    3200   -103081.61   -93714.183    227.50869    20721    226696.42    73.483468   -115.16414    24.870316    310.74423    435.45444    23.498935    22.154082   0.31037938    435.76482    16.756751   -1281.3787 
    3300   -103043.87   -93701.677    226.89594    20721    226509.64   -50.357643    -59.24167    150.83267   -242.66393    435.29589     23.49353    22.148986   0.38965676    435.68554    2.7607631   -1280.4859 
    3400   -102954.59   -93663.466    225.65543    20721     226618.7   -56.248062   -216.88531   -2.4681243    50.609251    435.32271    23.498461    22.153635   0.37624524    435.69895   -9.7676825   -1302.1288 
    3500   -103019.75   -93638.697    227.83961    20721    226576.39    43.575842    44.793878   -107.30299    193.23664    435.27559     23.49754    22.152766   0.39980656    435.67539    -6.380402   -1337.2925 
    3600   -103046.93   -93661.831    227.93801    20721    226505.19   -41.196181   -110.46106   -141.57635    128.44887    435.24964    23.494547    22.149945   0.41277836    435.66242    -7.452825   -1312.5813 
    3700   -103034.03   -93660.634    227.65369    20721     226736.1    27.969088    113.03013    26.101013   -55.223883    435.49633    23.499861    22.154955   0.28943527    435.78576   -18.606458   -1300.1284 
    3800   -102999.88   -93617.968    227.86059    20721    226709.42   -40.823387   -192.76132   -61.905826    132.19699    435.40971    23.500816    22.155855   0.33274714    435.74245   -17.119596   -1344.4332 
    3900   -102987.73   -93607.075    227.82989    20721     226828.4   -38.106414   -199.50667    80.488447    4.6989836    435.56191    23.502874    22.157796   0.25664612    435.81855   -46.376806   -1320.4272 
    4000   -102914.66   -93566.189     227.0484    20721    226717.52     59.83502     214.4108   -146.49083    111.58509    435.29766     23.50426    22.159102   0.38876772    435.68643    -52.51047   -1363.2641 
    4100   -102979.25   -93578.124    228.32704    20721    226814.27    32.689818   -32.246152   -147.62979     277.9454    435.46144    23.504853    22.159661   0.30687972    435.76832   -29.493935   -1372.5793 
    4200   -103030.01   -93574.768    229.64152    20721    226671.85    3.7613086   -39.928187   -318.96637    370.17848    435.29568    23.501946    22.156921   0.38975775    435.68544    -54.14174   -1357.6462 
    4300   -103018.15    -93540.95     230.1749    20721    226819.94    -29.24549    77.485587   -89.066644   -76.155413    435.43674    23.505814    22.160567   0.31923146    435.75597   -32.748247   -1405.9596 
    4400   -102988.92   -93542.576    229.42527    20721    226619.48    72.135874    186.63023    52.365568   -22.588178     435.4066    23.496238    22.151539   0.33429822     435.7409   -54.857157   -1394.1755 
    4500   -102923.55   -93532.066    228.09301    20721    226811.27    26.879853   -6.3331398    78.116292    8.8564072    435.43517    23.505407    22.160183   0.32001621    435.75518   -40.421984   -1411.3575 
    4600   -103022.53   -93523.351    230.70866    20721    226778.22   -33.972798   -205.98088    256.29002   -152.22753    435.39223    23.504854    22.159661   0.34148699    435.73371   -43.811252    -1417.701 
    4700   -102945.35   -93483.265    229.80759    20721    226703.13    5.6289476   -123.40541    60.861413    79.430842    435.36826    23.501609    22.156602   0.35347107    435.72173   -57.873507   -1448.5283 
    4800   -102908.79   -93434.925    230.09375    20721    226775.13   -41.211321   -164.95748   -33.490441    74.813954    435.51006    23.501513    22.156512   0.28257028    435.79263   -65.827633   -1484.8529 
    4900   -102815.56   -93411.518    228.39793    20721    226626.81    10.356614   -9.7668327     -20.2277    61.064374    435.46363    23.495079    22.150447     0.305783    435.76942   -48.595955   -1532.4457 
    5000   -102904.55   -93433.839    230.01724    20721    226741.96   -12.770174   -19.794487    19.086669   -37.602705    435.55076    23.498697    22.153857   0.26221762    435.81298   -27.590808   -1527.2543 
    5100   -102830.74   -93399.214     229.0655    20721    226712.43   -80.714076   -124.30394   -138.16662    20.328336    435.33766    23.502917    22.157835   0.36877069    435.70643    -20.20737   -1567.6215 
    5200   -102895.65    -93383.69    231.01911    20721    226800.93    1.0725301    29.067466    237.45755   -263.30743    435.38702    23.506171    22.160904   0.34408858    435.73111   -25.876382   -1580.0198 
    5300   -102863.06   -93376.445    230.40346    20721    226557.42   -40.920572    90.098092   -55.441127   -157.41868    435.24134     23.49748     22.15271   0.41693238    435.65827   -34.054242   -1584.6895 
    5400   -102844.97   -93338.525    230.88504    20721    226793.51    13.029577    79.609642   -208.14786    167.62694    435.42393     23.50479    22.159602   0.32563589    435.74956   -38.208794   -1616.8841 
    5500    -102768.3   -93301.594    229.91982    20721    226596.11     28.33187   -90.069966   -104.26182     279.3274     435.0906    23.503557    22.158439   0.49229841     435.5829   -31.170736    -1665.767 
    5600   -102807.03   -93293.105    231.06671    20721    226622.62   -24.829428   -124.44196   -73.195651    123.14933    435.05201    23.505974    22.160718   0.51159452    435.56361    -26.90679   -1678.4302 
    5700   -102736.76   -93268.964    229.94631    20721    226475.39    5.7998155    161.26073    148.38824   -292.24953    434.97564      23.5004    22.155463   0.54978154    435.52542   -33.332834   -1699.4116 
    5800   -102659.26   -93221.293    229.22193    20721    226676.98    83.523551    184.40166   -21.187302    87.356298    435.30744    23.501895    22.156872   0.38388049    435.69132   -54.218389   -1727.4321 
    5900   -102776.64   -93183.151    232.99905    20721    226592.07   -81.917026   -95.158129   -236.66102    86.068074    435.13804    23.502066    22.157033   0.46857882    435.60662    -57.30656   -1757.8671 
    6000   -102844.15   -93233.581    233.41395    20721     226689.7   -13.244617     -157.283    82.084582    35.464566     435.1686    23.506303    22.161028   0.45329817     435.6219   -28.345698   -1739.8651 
    6100   -102774.47   -93232.509    231.74772    20721    226634.63   -46.344129    111.37574   -137.98274   -112.42539    435.26009    23.500978    22.156007   0.40755578    435.66764    -38.68807   -1731.1501 
    6200   -102745.96    -93233.53    231.03045    20721    226886.42   -37.335825   -45.324018   -166.14174    99.458286    435.56098    23.505905    22.160653   0.25710992    435.81809   -31.211945   -1729.8552 
    6300   -102706.81   -93170.945    231.59952    20721    226686.38   -120.85004   -284.48729    1.3892448   -79.452086    435.35092    23.501209    22.156225     0.362139    435.71306   -36.104531   -1791.3197 
    6400   -102699.77   -93169.001    231.47581    20721    226889.79    72.777422    38.151502    60.161528    120.01923    435.41989    23.509888    22.164408   0.32765512    435.74754   -16.541966   -1818.9211 
    6500   -102671.82   -93124.536    231.87689    20721    226923.57    8.1752644    173.55531   -195.53995    46.510428    435.63328    23.505879    22.160628   0.22096142    435.85424   -31.713662   -1844.4573 
    6600   -102669.89   -93065.053    233.27474    20721    226856.58    37.112446    87.994256    145.94602   -122.60293    435.64244    23.502162    22.157124   0.21637964    435.85882   -33.186375   -1907.2607 
    6700   -102606.72   -93073.135     231.5442    20721    226935.37   -69.028715   -211.81474    121.15571   -116.42712    435.57629    23.508028    22.162654   0.24945648    435.82574   -46.008503    -1880.045 
    6800      -102552   -93018.925     231.5317    20721     227119.6   -3.5021338   -141.02672    219.38414   -88.863818    435.61996    23.516389    22.170537   0.22762055    435.84758   -36.180403   -1940.9792 
    6900   -102543.23   -93056.385    230.40892    20721    227015.23    71.023565    49.765505    194.09331   -30.788125    435.68831    23.509141    22.163703    0.1934449    435.88176   -53.277664   -1894.6686 
    7000   -102587.63   -92996.814    232.93419    20721    227051.14   -51.434133   -13.928972   -28.824386   -111.54904    435.73483    23.509745    22.164273   0.17018355    435.90502   -59.826073   -1943.2793 
    7100   -102669.25   -92970.772    235.54897    20721    226840.23   -31.875472    36.105541    69.675586   -201.40754    435.44947    23.506522    22.161234   0.31286366    435.76234   -65.053671   -1971.0457 
    7200      -102573   -92966.113    233.32458    20721    226939.12    2.2281378  -0.59878647   -175.01501    182.29821    435.40803    23.512764    22.167119   0.33358341    435.74162   -66.157235   -1973.4894 
    7300   -102639.09    -92969.17    234.85538    20721    226937.37   -24.602329    -125.2726    105.20496   -53.739347    435.40186     23.51284     22.16719   0.33666849    435.73853   -57.505633   -1980.3536 
    7400   -102527.68   -92944.905    232.73887    20721    226638.87   -41.466361   -19.916993    34.270628   -138.75272     435.0819    23.506009    22.160751   0.49664873    435.57855   -70.114604    -1998.365 
    7500      -102450   -92883.926    232.33325    20721    226775.13   -66.570307    13.208417   -187.54195   -25.377392    435.42975    23.503681    22.158556   0.32272266    435.75248   -75.200287   -2051.8372 
    7600   -102575.77   -92872.754     235.6592    20721    226745.76   -8.8212992   -170.84899    225.90665    -81.52156    435.30857     23.50543    22.160204   0.38331541    435.69188    -80.37202    -2062.868 
    7700   -102506.27   -92839.362    234.78232    20721    226748.45   -33.258665   -200.67886    100.33959   0.56327403    435.20355    23.508405     22.16301   0.43582327    435.63938   -93.491726   -2084.4547 
    7800    -102443.3   -92855.888    232.85153    20721    226641.83    61.570284    61.002182   -167.75279    291.46145    435.24484    23.501762    22.156747   0.41518095    435.66002   -92.778986   -2076.4526 
    7900   -102503.34    -92832.17    234.88569    20721    226799.63    32.669918    186.45123   -205.97411    117.53264     435.2768     23.50908    22.163646   0.39919908      435.676    -109.5181   -2080.3358 
    8000   -102505.53   -92849.994    234.50597    20721    226638.96   -16.795182    134.19393    127.33464   -311.91412    435.17459    23.503511    22.158395   0.45030648    435.62489   -96.731209   -2077.1954 
    8100   -102533.91   -92836.131    235.53212    20721    226746.78   -52.341039   -84.006488    130.45593   -203.47256    435.32517    23.505034    22.159832   0.37501332    435.70019   -90.976225   -2093.0612 
    8200   -102493.75   -92850.127    234.21673    20721    226598.62   -57.353969   -90.272356     0.107845   -81.897395    435.24572    23.499498    22.154612    0.4147416    435.66046   -100.60296   -2073.7462 
    8300   -102471.95   -92852.431    233.63129    20721    226709.22   -16.003468   -45.981293    123.10187   -125.13098    435.48538    23.498764     22.15392    0.2949098    435.78029   -66.596765    -2107.352 
    8400   -102501.19   -92821.499     235.0926    20721    226729.16   -56.209202    56.600498   -88.604015   -136.62409    435.54328    23.498235    22.153422   0.26595936    435.80924   -73.861467   -2129.5403 
    8500   -102324.65   -92769.826    232.05999    20721    226630.46    8.6916385    96.096117   -106.96119    36.939989     435.3461     23.49844    22.153615   0.36454947    435.71065   -109.37016    -2149.727 
    8600   -102400.26    -92761.09    234.10861    20721    226527.93    49.651461   -168.67893   -144.00337    461.63669    435.22922    23.496278    22.151576   0.42298934    435.65221   -89.004979   -2185.1253 
    8700   -102514.01   -92749.711    237.14763    20721     226620.3   -166.00629   -183.15811   -120.97429   -193.88648    435.29359     23.49933    22.154454   0.39080358     435.6844   -99.693827   -2175.5481 
    8800   -102369.22   -92754.051     233.5257    20721    226416.07   -5.1641618   -31.207881    210.72328   -195.00789    434.82349    23.501433    22.156437   0.62585687    435.44934   -88.308535   -2196.2615 
    8900   -102453.71   -92772.855    235.12104    20721    226527.77   -22.252287    140.82766   -327.47156    119.88704    434.98935    23.502747    22.157675    0.5429226    435.53228   -81.862782   -2182.0507 
    9000   -102511.06    -92815.62    235.47515    20721    226516.86    3.1230367   -14.688221   -244.56511    268.62244    434.96172    23.502928    22.157846    0.5567399    435.51846   -56.232919   -2167.2766 
    9100   -102334.08   -92772.327    232.22836    20721    226651.46    23.163978    50.685259    42.076828   -23.270151     435.2293    23.502681    22.157614   0.42294802    435.65225    -51.93848   -2210.5822 
    9200   -102361.31    -92798.55    232.25283    20721    226606.44    95.392066   -19.196348     98.75493    206.61762    434.95144    23.507852    22.162488   0.56187753    435.51332   -55.799412   -2187.9451 
    9300   -102425.75   -92792.077    233.97506    20721    226414.19    58.608007    190.40648    10.243216   -24.825677    434.90527    23.499125    22.154261   0.58496579    435.49023   -49.666807   -2205.4487 
    9400   -102402.02   -92752.805    234.35266    20721     226511.4   -5.9526376   -47.634819    147.51746   -117.74056    434.95744     23.50276    22.157687   0.55887887    435.51632   -68.969327   -2220.2212 
    9500   -102371.65   -92722.445    234.35239    20721    226653.27    52.681134   -5.8508192   -70.279504    234.17372    434.94976    23.510327    22.164821   0.56271915    435.51248   -63.832079    -2254.499 
    9600   -102334.69    -92688.06    234.28969    20721    226544.62   -25.887314   -141.86867   -277.55683    341.76355    435.15767    23.499075    22.154214   0.45876679    435.61643    -73.43669   -2280.0634 
    9700   -102378.44    -92700.83    235.04218    20721    226752.27    53.594705    180.79345   -155.65534      135.646    435.30825    23.505776    22.160531   0.38347588    435.69172   -91.639404   -2248.0806 
    9800   -102378.78   -92721.841    234.54013    20721    226641.01   -36.267006   -233.61852    115.32672    9.4907902     435.0592    23.506734    22.161434   0.50800205     435.5672   -61.976475   -2257.3305 
    9900   -102423.29   -92700.646     236.1359    20721    226612.75    15.874581    127.47548    112.48201   -192.33374    435.25458    23.499992    22.155078   0.41030891    435.66489   -85.150977   -2260.7803 
   10000   -102383.67   -92691.738    235.39002    20721    226649.74   -6.6916881   -73.762428   -23.222178    76.909542    435.09504    23.506218    22.160948   0.49007842    435.58512   -69.219138   -2284.2463 
   10100   -102459.81   -92669.696    237.77452    20721    226524.95   -67.592396    -271.9474   -555.93513    625.10534    434.88446    23.505435     22.16021    0.5953719    435.47983   -95.643363   -2280.0866 
   10200   -102346.44   -92658.155    235.30144    20721    226757.51   -30.837637    16.269693   -187.31269    78.530088    435.16709     23.50986    22.164381   0.45405599    435.62114    -87.25767   -2295.6802 
   10300    -102319.1   -92604.629    235.93731    20721    226654.08    33.730075   -3.4073958   -3.9718033    108.56943    434.84497    23.513201    22.167531   0.61511292    435.46009    -93.80345    -2348.053 
   10400   -102329.46   -92612.585     235.9958    20721    226591.16   -5.4273423    202.09305    35.845926   -254.22101    434.94853    23.507138    22.161815   0.56333546    435.51186   -102.07463   -2334.6067 
   10500   -102318.87   -92640.782     235.0539    20721    226551.05   -14.549988   -33.475093    72.462433   -82.637305    435.07628    23.501606      22.1566   0.49946228    435.57574   -93.988663   -2315.7398 
   10600   -102405.32   -92667.971      236.493    20721    226667.41   -104.34939    48.565144   -193.89397   -167.71936    434.93595    23.511433    22.165864   0.56962253    435.50558   -90.546017    -2286.392 
   10700   -102344.07   -92622.914    236.09989    20721    226506.37   -90.060568   -89.897258   -105.18657   -75.097878    434.75296    23.508025    22.162652   0.66111957    435.41408   -84.415799   -2344.5046 
   10800   -102337.34   -92651.055    235.25284    20721    226490.58    16.711889   -80.240851   0.47403143    129.90249     434.7445    23.507435    22.162095   0.66535152    435.40985   -85.940326   -2322.8998 
   10900   -102353.75   -92642.815    235.85156    20721    226402.01   -21.110484   -65.931703    137.48639   -134.88614    434.67505    23.504716    22.159531   0.70007337    435.37513   -90.443155   -2327.0388 
   11000      -102322   -92628.563    235.42667    20721    226431.21    56.121001   -5.5166476   -5.5506236    179.43027     434.5268    23.510241     22.16474   0.77420136      435.301   -103.08797   -2331.1886 
   11100   -102348.38   -92636.721    235.86923    20721    226310.35   -30.063953   -167.10875   -104.69297    181.60987    434.54628    23.503439    22.158327   0.76446224    435.31074   -112.54794   -2315.1483 
   11200   -102350.58   -92640.073    235.84117    20721    226332.92    8.7196494    83.390824   -129.26174    72.029867    434.70428    23.500339    22.155405   0.68545911    435.38974   -113.10136   -2312.8286 
   11300   -102351.52   -92605.018    236.71548    20721    226409.01   -6.9871265     303.0327   -146.02415   -177.96993    434.77404    23.502403    22.157351    0.6505788    435.42462   -102.84116   -2357.6305 
   11400   -102310.74   -92595.248    235.96233    20721    226423.98    -82.33304   -145.88333   -276.07419     174.9584    434.56955    23.508709    22.163296    0.7528269    435.32237   -112.62617    -2356.155 
   11500   -102283.35    -92546.73    236.47528    20721    226418.53   -8.4325674   -20.734348    156.26142   -160.82477    434.78864    23.502502    22.157445   0.64328179    435.43192   -113.54046   -2408.3199 
   11600   -102268.83   -92495.483    237.36749    20721    226336.91   -11.668668   -39.336916    141.79793   -137.46702    434.58132     23.50387    22.158734   0.74693995    435.32826   -117.27975   -2458.2494 
   11700   -102218.42   -92476.663    236.60025    20721    226339.07    79.005064   -98.904769   -8.7670689    344.68703    434.63528    23.502523    22.157464     0.719961    435.35524   -138.65552   -2462.3723 
   11800   -102192.08   -92460.098    236.36273    20721    226373.49    17.519777     19.65859    229.18068   -196.27994    434.62267    23.504651     22.15947   0.72626511    435.34893   -128.19686    -2485.123 
   11900   -102236.97   -92448.912    237.72473    20721    226455.78    26.603463    44.110658   -211.30291    247.00265    434.97492    23.499402    22.154522    0.5501396    435.52506   -127.48093   -2496.7289 
   12000   -102120.79    -92381.01    236.55205    20721     226557.6    119.26513    15.365235    274.50887    67.921302    434.90191    23.506657    22.161362   0.58664591    435.48855    -130.3357   -2562.8554 
   12100   -102178.61   -92396.747    237.57431    20721    226533.73   -13.051194    110.42362   -23.029447   -126.54776    434.82872    23.507397    22.162059   0.62323877    435.45196   -125.72086   -2548.3506 
   12200    -102272.1   -92373.403    240.41178    20721    226546.37   -51.940453   -60.272281   -176.43134    80.882265    434.98447    23.503844     22.15871   0.54536721    435.52983    -130.3195   -2567.0637 
   12300   -102181.63   -92381.283    238.02311    20721    226665.47    76.368726    111.03902   -108.53862    226.60578    435.08094    23.507415    22.162076   0.49713247    435.57807   -140.31011   -2553.7897 
   12400   -102111.78   -92351.329    237.05411    20721    226571.96   -4.5558765    36.864419   -10.338864   -40.193184    434.97008     23.50556    22.160328    0.5525587    435.52264   -127.94846   -2593.1798 
   12500   -102091.35   -92290.325    238.03957    20721     226789.7    68.910509    92.656866     143.2013   -29.126641    435.11202    23.513016    22.167357   0.48158808    435.59361   -144.64515   -2636.6276 
   12600   -102150.48   -92243.195    240.62022    20721    226649.26   -83.292447   -69.591884   -103.11068   -77.174778    435.32335    23.500029    22.155113   0.37592546    435.69927   -149.47737   -2678.5526 
   12700   -102057.45   -92248.026    238.24364    20721    226729.05    80.376062    300.82649   -139.17167    79.473365    435.20443    23.507376    22.162039   0.43538711    435.63981   -153.40298   -2674.4218 
   12800    -101989.8   -92193.371    237.92791    20721    226793.09    -52.89011   -202.62083   -61.331283    105.28179    435.38944    23.505699    22.160459   0.34287763    435.73232   -167.35109   -2708.3888 
   12900   -102105.96   -92200.667    240.57195    20721    226788.94   -67.096136   -198.94191   -81.813692    79.467194    435.46448    23.503459    22.158347   0.30536082    435.76984   -151.23397   -2718.3379 
   13000   -102058.41   -92220.071    238.94589    20721       226847    59.498499    163.93766    175.59812   -161.04029    435.35875    23.509321    22.163873   0.35822317    435.71698   -161.51077   -2694.6477 
   13100   -101988.79   -92174.313    238.36637    20721     226692.4    6.3394173   -27.382665    138.59491   -92.193993    435.40323    23.500109    22.155188   0.33598515    435.73921   -165.98916   -2736.3768 
   13200   -102008.94   -92138.726     239.7199    20721    226982.26    109.31326    32.596074    37.641902    257.70181    435.49112    23.512755    22.167111   0.29203864    435.78316   -152.57583   -2783.1312 
   13300   -102041.73   -92157.369    240.06363    20721    226803.77   -42.873766   -56.381032   -156.44577    84.205507    435.68847    23.498185    22.153374   0.19336411    435.88184   -146.53526   -2769.3503 
   13400   -101971.47   -92165.366    238.16303    20721    227019.32    63.845512   -150.36304    208.34428     133.5553    435.77298    23.507069     22.16175   0.15111096    435.92409   -134.62994     -2775.64 
   13500   -101929.02   -92155.275    237.37697    20721    226832.75    48.118559    127.19762    156.71331   -139.55525    435.35835    23.508594    22.163188   0.35842502    435.71677   -162.28614   -2763.6117 
   13600   -102003.33   -92164.962    238.94648    20721    226893.96    28.887342   -155.82718   -54.538146    297.02735    435.51307    23.507589     22.16224   0.28106264    435.79414   -153.71415   -2762.2736 
   13700   -101978.44   -92093.558    240.07622    20721    226739.96   -62.836211    -121.3293    101.69165   -168.87098    435.42511    23.501984    22.156956   0.32504579    435.75015   -176.77492   -2809.8255 
   13800      -101941   -92097.087    239.08121    20721    226799.47  -0.32512996     -71.3976   -36.750558    107.17277    435.33674    23.507453    22.162112   0.36923055    435.70597   -192.38873   -2791.7352 
   13900   -101844.45   -92095.276    236.78017    20721    226607.18   -54.341124   -74.963757   -387.80049    299.74087    435.31649    23.498032     22.15323   0.37935371    435.69585   -177.24641   -2813.9186 
   14000    -101969.1    -92110.43    239.43966    20721    227002.07   -36.277163   -45.291309   -162.34868    98.808495    435.43212    23.515374     22.16958   0.32154133    435.75366   -174.03095   -2793.2701 
   14100   -101879.69   -92097.464    237.58298    20721    226542.96    27.741216   -132.80238   -18.968659    234.99469    435.17783    23.498445    22.153619   0.44868457    435.62652   -199.96493   -2796.6859 
   14200   -102051.14   -92135.446    240.82458    20721    226565.61    -41.65452   -19.856449   -115.54498    10.437871    434.98513    23.504824    22.159634   0.54503697    435.53016   -181.95084   -2775.5146 
   14300   -101940.56   -92121.087    238.48767    20721    226665.92   -63.856301   -28.146114   -102.93963   -60.483157     435.1024    23.506858    22.161551   0.48640071     435.5888   -199.76136   -2768.3262 
   14400   -101981.01   -92114.562    239.62861    20721    226492.47    8.9596757    36.216891    108.14556   -117.48343    434.91711    23.502867    22.157789   0.57904405    435.49616   -208.62638    -2777.345 
   14500   -101877.71   -92119.104    237.00926    20721    226508.24     13.00234    11.994735   -168.82381     195.8361    434.74975    23.508209    22.162825    0.6627254    435.41247   -212.56928   -2766.6189 
   14600   -101899.91   -92107.311    237.83494    20721    226431.74    17.901052     81.21104    18.405003   -45.912887     434.9153    23.499765    22.154864   0.57994801    435.49525   -216.18207   -2779.1662 
   14700   -102000.92   -92076.887    241.02723    20721    226593.58   -93.666999     30.47555    125.85592   -437.33247     435.0654    23.504106    22.158957   0.50489886     435.5703   -197.05985   -2821.3175 
   14800   -102005.11   -92099.432    240.58138    20721    226669.18   -40.019905     29.11135    124.83061   -274.00167    434.85045    23.513836     22.16813   0.61237571    435.46282   -198.47948   -2798.2912 
   14900   -101911.01   -92113.405    237.95639    20721    226439.47  -0.26167514    63.808746    44.074196   -108.66797    434.56486     23.50964    22.164174   0.75516812    435.32003   -182.51091   -2808.7104 
   15000   -101945.69    -92107.61    238.93959    20721    226574.66   -4.2942144    81.772878   -95.722299     1.066778    434.65041    23.514342    22.168607   0.71239482    435.36281   -206.86338   -2788.3857 
   15100   -101973.89   -92049.883    241.02654    20721    226387.82   -30.224708   -155.14945    101.76027   -37.284947    434.30409    23.514015    22.168298   0.88555287    435.18965   -205.05137   -2851.8569 
   15200   -101888.45    -92004.22    240.06027    20721    226504.76   -70.308041    130.88014   -137.08929   -204.71498     434.6864    23.509742     22.16427   0.69440234     435.3808   -225.92996   -2875.5784 
   15300   -101909.53    -92033.36    239.86475    20721    226416.75    90.878484     118.5826    18.574244    135.47861    434.50161    23.510171    22.164675   0.78679562     435.2884   -222.41134   -2860.7853 
   15400    -101836.8    -92015.97    238.52068    20721    226525.52   -26.565339   -94.699998   -184.65343    199.65741    434.95657    23.503516      22.1584   0.55931584    435.51588   -206.78914   -2885.9327 
   15500   -101935.85   -91996.379    241.40211    20721    226460.59   -25.613073    81.965573    218.50226   -377.30705    434.96116    23.500023    22.155107   0.55702238    435.51818   -200.32713   -2915.4914 
   15600    -101802.9   -91940.795    239.52294    20721    226448.39    30.115202    39.484772    125.30923   -74.448393     434.8825    23.501515    22.156514   0.59634974    435.47885   -226.97542   -2947.3221 
   15700   -101817.69    -91903.45    240.78934    20721    226607.74     85.96945    6.3506554   -16.474818    268.03251    435.13513    23.502957    22.157874   0.47003454    435.60517   -226.62177   -2984.3328 
   15800   -101907.38   -91944.221     241.9773    20721    226702.23   -118.32386    -64.55934   -13.148188   -277.26406     435.0544    23.510038    22.164549   0.51039883     435.5648   -212.21931   -2947.0091 
   15900   -101962.21   -92010.658    241.69541    20721    226602.77   0.92944399   -18.922575   -28.405239    50.116146    435.21889    23.500438    22.155498   0.42815432    435.64705   -192.98349   -2909.3616 
   16000   -101901.41   -92019.809    239.99659    20721    226580.93    62.662052     36.48398    186.98581   -35.483635    435.21787    23.499333    22.154457   0.42866268    435.64654   -184.25017   -2912.1017 
   16100   -101928.11   -92011.246    240.85292    20721    226515.33   -93.452183   -218.09721   -114.90993    52.650594    434.88386    23.504952    22.159754   0.59567054    435.47953    -162.0076   -2940.1878 
   16200    -101840.8   -92028.081    238.32371    20721    226492.03    96.116785    209.11213   -218.33934    297.57757    434.75635     23.50719    22.161864   0.65942696    435.41577    -168.3974   -2925.7726 
   16300    -101848.9   -92002.015    239.15338    20721    226266.39    71.479205   -58.177026   -84.358782    356.97342    434.64889    23.498382     22.15356   0.71315732    435.36204   -169.59484   -2957.4252 
   16400   -101849.94   -91988.488    239.50708    20721    226423.55   -39.386843   -118.31247    208.89434    -208.7424    434.82336    23.501825    22.156806   0.62592225    435.44928   -170.97362   -2960.2569 
   16500    -101893.2   -91945.575     241.6001    20721    226232.46    42.331903   -48.918103    276.44903   -100.53522    434.40063    23.503333    22.158228   0.83728546    435.23791   -169.05679   -3018.7767 
   16600   -101825.56   -91942.219    240.03888    20721     226185.2    40.192537   -88.790267    131.63467    77.733207    434.31912    23.503083    22.157992   0.87803884    435.19716   -176.96571   -3014.9074 
   16700   -101957.53   -91980.731     242.3087    20721    226258.85    8.0889774    62.062617   -130.08733    92.291645    434.50429      23.5019    22.156876   0.78545276    435.28975   -170.43635     -2982.44 
   16800   -101881.53   -91981.485    240.44448    20721    226143.31   -41.198021   -78.253838    37.343684   -82.683909    434.32403    23.500774    22.155815    0.8755875    435.19961     -171.198   -2983.0334 
   16900   -101885.95   -91977.616    240.64585    20721    226177.68    42.371199   -16.223882   -202.53423     345.8717    434.07795     23.50922    22.163778   0.99862314    435.07658   -159.35708   -3002.1827 
   17000   -101933.58   -91997.165    241.32787    20721    225987.96   -86.837311   -120.18127    45.867641   -186.19831    434.12517     23.49808    22.153276   0.97501408    435.10019   -154.63285    -2990.705 
   17100   -101908.97   -92024.787    240.05919    20721    226130.92    73.235388    88.458953    32.126113    99.121098    434.23396    23.502567    22.157506   0.92061802    435.15458   -150.91866   -2969.2536 
   17200   -101868.27   -91983.929    240.06299    20721    226185.77    50.667525   -6.4039509    41.395524      117.011    434.29382    23.503797    22.158665   0.89068875    435.18451   -158.17618    -3002.416 
   17300   -101826.57   -91982.934    239.07453    20721    226080.81    77.128589    16.766877    169.74364    44.875246    434.09284    23.503782    22.158651   0.99117772    435.08402   -164.68452   -3001.9737 
   17400   -101859.13   -91949.036    240.68868    20721    225932.28   -14.935161     -36.2178   -39.390865    30.803183    434.15898     23.49427    22.149684    0.9581087    435.11709    -166.7148     -3034.47 
   17500   -101914.06   -91972.543     241.4517    20721    226236.59   -25.844179   -77.523548   -51.390052    51.381064    434.43099    23.502726    22.157656   0.82210358     435.2531   -168.95385   -2999.7147 
   17600   -101893.15   -91930.755    241.95889    20721    225897.98    54.245022    59.533318   -267.76347    370.96521    434.06147    23.495125     22.15049    1.0068639    435.06834   -161.49794   -3064.2944 
   17700    -101738.8   -91929.795    238.23343    20721     226101.9    32.993754    -119.0707    444.36429   -226.31233    434.22164    23.501392    22.156398   0.92677893    435.14842   -158.87969   -3061.4419 
   17800   -101874.18   -91949.073    241.05326    20721    226072.68  -0.23292926    106.20678    202.12251   -309.02807    434.20257     23.50039    22.155453   0.93631643    435.13888    -141.5799   -3059.5999 
   17900   -101847.55   -91953.414    240.30087    20721    226109.77   -56.239083    21.443495   -235.87901    45.718265    434.06136     23.50614    22.160874      1.00692    435.06828   -158.51384   -3036.6004 
   18000    -101890.9   -91950.481    241.42498    20721    226176.67   -62.117759   -168.18359    39.421277   -57.590964    434.08172    23.509066    22.163632   0.99673991    435.07846   -128.79107   -3068.7886 
   18100   -101859.36   -91926.455    241.24251    20721    226233.44     28.57833    102.46052   -89.651788    72.926263    434.06458     23.51248    22.166851    1.0053088    435.06989   -132.01774    -3091.846 
   18200   -101865.93   -91886.611    242.36974    20721    226243.36   -175.23103    -119.5306   -221.03341   -185.12907    434.13103    23.511196    22.165641   0.97208356    435.10312   -151.10702   -3103.2471 
   18300    -101803.1   -91893.594    240.67419    20721    226333.27    49.247318    130.35014   -43.299966    60.691778    434.27062    23.512088    22.166481   0.90228853    435.17291   -146.04385   -3111.2189 
   18400   -101861.22   -91879.626    242.42516    20721    226187.16   -47.146008   -308.26596   -22.697036    189.52497    434.13876    23.508066     22.16269    0.9682208    435.10698   -147.73938   -3124.3163 
   18500   -101828.43    -91829.24    242.85244    20721    226369.72   -135.96918   -130.37585    211.58096   -489.11266    434.14033    23.517509    22.171592   0.96743545    435.10776    -162.9839   -3151.3483 
   18600   -101787.18   -91854.905    241.22728    20721    226402.95    50.372733    49.023916    -7.487427    109.58171    434.21543    23.517201    22.171302   0.92988333    435.14532   -159.58656   -3135.9065 
   18700   -101762.99   -91888.379    239.82678    20721    226167.46    58.106619    189.48959    -68.67325    53.503517    434.08414    23.508521    22.163119   0.99552984    435.07967   -148.91594   -3121.3074 
   18800   -101811.34   -91858.384    241.72964    20721     226370.3    3.4440262   -80.795434     195.5839   -104.45639    434.39879    23.510542    22.165024   0.83820441      435.237   -141.59401   -3151.6453 
   18900   -101841.99   -91828.237    243.20625    20721    226403.12   -36.778446    18.246635    15.789294   -144.37127    434.32076    23.514358    22.168622   0.87721973    435.19798   -144.65565   -3176.5461 
   19000   -101692.87   -91785.207    240.62946    20721    226214.34   -61.623177   -149.89337    88.851316   -123.82748    434.59155    23.497229    22.152473   0.74182627    435.33337   -146.40579   -3224.9179 
   19100   -101705.96   -91776.712    241.15378    20721       226250    -73.12608   -53.004556    113.21533   -279.58901    434.53901    23.500501    22.155558   0.76809287    435.30711    -142.5036   -3236.0074 
   19200   -101736.71   -91732.652    242.97073    20721    226357.22   -70.836721   -90.739808    174.14123   -295.91158    434.66924    23.502548    22.157487   0.70297934    435.37222   -162.57902   -3257.9687 
   19300    -101743.5   -91724.361      243.337    20721    226142.04   -27.727488   -89.732692   -294.80889    301.35912    434.45349    23.497206    22.152451   0.81085534    435.26434   -139.34368   -3299.6943 
   19400   -101702.82    -91707.03    242.76979    20721    226256.87    41.104544    196.07065    49.079092   -121.83611    434.70841    23.496278    22.151577   0.68339344    435.39181   -179.43997   -3275.1231 
   19500   -101736.11   -91669.049    244.50094    20721    226257.65    59.583575    74.031022    83.033218    21.686485    434.57681    23.499876    22.154969   0.74919282    435.32601    -183.5584    -3313.534 
   19600   -101667.17   -91677.095    242.63109    20721    226431.54   -56.311939   -112.23983    172.08422   -228.78021     434.6051     23.50814     22.16276   0.73504945    435.34015   -167.86518   -3310.3343 
   19700   -101725.49    -91678.36    244.01668    20721    226238.34   -86.668048   -34.226666   -110.30847   -115.46901    434.66224    23.496564    22.151846   0.70648072    435.36872   -177.07778   -3305.6531 
   19800   -101697.35   -91689.112    243.07225    20721    226178.03   -22.662018   -30.090631    99.841081    -137.7365    434.65503    23.493627    22.149077   0.71008525    435.36511   -147.70263    -3328.105 
   19900    -101648.4   -91676.729    242.18408    20721    226261.79    34.870473    57.134199    71.663749    -24.18653    434.76691    23.494953    22.150327   0.65414346    435.42106   -150.36464   -3341.0739 
   20000   -101550.43   -91614.517    241.31566    20721    226298.68    42.677574    86.462672   -172.24483    213.81487    434.71966    23.498145    22.153337   0.67777041    435.39743   -161.46594   -3391.5369 
   20100   -101582.02   -91638.473    241.50094    20721    226280.21    56.252656    27.972681    32.397704    108.38758    434.62279    23.499805    22.154902   0.72620422      435.349   -142.39976    -3389.812 
   20200   -101644.47   -91661.004    242.47045    20721     226060.4   -76.428169   -316.27793   -13.010576      100.004    434.40142    23.494372     22.14978   0.83689205    435.23831   -106.87351   -3404.3373 
   20300   -101549.43   -91600.183    241.63951    20721    226242.02   -48.711102   -35.471041    72.223929   -182.88619    434.70291    23.495656     22.15099   0.68614651    435.38905   -122.85094   -3446.2286 
   20400   -101574.28   -91569.045    242.99917    20721    226234.49    39.868556   -43.674269    117.12628    46.153658     434.5166    23.500302     22.15537   0.77930118     435.2959   -146.86105   -3457.9589 
   20500   -101618.17   -91606.401    243.15807    20721     226162.5   -10.869564    13.187917   -43.511927   -2.2846822    434.40677    23.499532    22.154645   0.83421447    435.24099   -132.84148   -3434.6094 
   20600   -101601.45   -91632.832    242.10991    20721    226205.08    99.453027    181.38102    81.683661    35.294396    434.40659    23.501749    22.156735    0.8343071    435.24089   -127.56898   -3420.6625 
   20700   -101676.65   -91643.234    243.68373    20721    226002.16   -20.603059   -14.897051    33.646521   -80.558647    434.32578    23.493391    22.148855   0.87470882    435.20049   -138.74566   -3400.7091 
   20800   -101493.63   -91623.442    239.71937    20721    226210.74    40.832516   -320.17047    427.69812    14.969901    434.34225    23.503784    22.158653   0.86647417    435.20873   -138.36761    -3418.051 
   20900   -101633.26   -91637.233    242.77569    20721    226225.05    57.464585    98.459844   -79.400956    153.33487    434.15153     23.50969    22.164221   0.96183467    435.11337   -133.29344   -3413.0915 
   21000   -101547.01   -91608.859    241.37006    20721    226266.09  -0.87083291   -102.89615    38.413252    61.870398    434.29759    23.507868    22.162503   0.88880274     435.1864   -140.70295   -3428.8345 
   21100   -101621.33   -91600.325     243.3822    20721    226308.47   -6.8282105   0.52525867   -222.86044    201.85055     434.3583    23.508426     22.16303   0.85844765    435.21675   -137.85923    -3441.476 
   21200   -101538.54   -91569.712    242.11508    20721    226129.33    33.865919    9.6547896    175.33033   -83.387368    434.12731    23.505371    22.160149   0.97394741    435.10125   -139.69505   -3478.3792 
   21300    -101606.2   -91542.949     244.4084    20721    226334.21   -24.385511    134.90757   -132.56412   -75.499981    433.97577    23.520122    22.174056    1.0497171    435.02548   -148.23991   -3488.6527 
   21400   -101534.24   -91524.773    243.10203    20721    226173.53    23.248663    165.65929    3.1750723   -99.088377    434.07478    23.509091    22.163656    1.0002087    435.07499    -142.2658   -3520.5937 
   21500   -101531.87   -91507.311     243.4685    20721    226194.09    17.677248   -177.27644    247.70293   -17.394752    434.12001    23.508934    22.163508   0.97759329    435.09761   -151.49825      -3527.8 
   21600   -101578.18   -91505.313    244.64184    20721    226059.58   -151.49513   -120.73692     -351.385    17.636519    433.94314    23.506732    22.161432    1.0660308    435.00917   -109.76419   -3570.9279 
   21700   -101467.28   -91504.013    241.98006    20721    226063.26     40.77657   -27.575071    109.39547     40.50931    434.00214    23.505326    22.160106    1.0365292    435.03867   -139.16461   -3551.8544 
   21800   -101556.35   -91552.025     242.9771    20721    225964.65   -31.662593   -234.46342    -94.05308    233.52872    433.97753    23.500865    22.155901    1.0488332    435.02637   -122.50974   -3520.5431 
   21900   -101588.94   -91519.307    244.56335    20721    225993.04    40.773403    148.50268   -147.26713    121.08466    433.94874    23.503121    22.158028    1.0632295    435.01197   -137.83107   -3541.7205 
   22000   -101506.75   -91503.757    242.94485    20721     226100.8    68.813845    -139.1055    168.90445    176.64259    433.97067     23.50813     22.16275    1.0522645    435.02294   -144.34212   -3548.7634 
   22100   -101572.07   -91469.278    245.36865    20721    225960.44   -88.281889   -323.16901    199.14824    -140.8249    433.91749    23.502272    22.157227    1.0788558    434.99634    -141.2212   -3585.2405 
   22200    -101594.8   -91471.159    245.87507    20721    225983.47  -0.50975948    77.315384    76.080495   -154.92516    433.88847    23.504255    22.159097    1.0933646    434.98184   -142.81664   -3587.6696 
   22300   -101530.28   -91445.284    244.93636    20721    225945.84    21.012553    218.22967    218.70668   -373.89869    433.93805    23.500956    22.155987     1.068574    435.00663      -152.91   -3604.2282 
   22400   -101486.63    -91452.47     243.7017    20721    225825.63    72.288358    120.73232    -117.9511    214.08386    433.56337    23.504853    22.159661    1.2559132    434.81929   -133.86355   -3625.2164 
   22500   -101434.14   -91446.259    242.57781    20721       225961   -9.3130909   -1.8945368    59.512509   -85.557245    433.53147    23.512762    22.167117    1.2718628    434.80334   -121.92871   -3635.8413 
   22600   -101444.58   -91454.752    242.62507    20721    225854.92   -39.884701    40.929978   -373.05494    212.47086    433.74916    23.501342    22.156351    1.1630209    434.91218   -124.60977   -3626.8982 
   22700   -101543.36   -91508.838    243.71058    20721    225754.59    76.567437   -75.615546    -120.9705    426.28836    433.76062    23.495811    22.151137    1.1572882    434.91791   -126.30871   -3580.8243 
   22800   -101426.24   -91459.412    242.06646    20721    226069.54   -7.3896963   -65.299132   -209.64286    252.77291    433.78356    23.511574    22.165997    1.1458212    434.92938   -123.57071   -3620.3125 
   22900    -101527.5   -91419.999    245.48312    20721    225863.15   -8.1972627   -85.415525   -42.038412    102.86215    433.67046    23.503903    22.158765    1.2023684    434.87283   -128.43721   -3665.0376 
   23000   -101429.64   -91458.424    242.17307    20721    225952.74    73.785213    53.521318    315.83776   -148.00344    433.61425    23.510088    22.164596    1.2304761    434.84472   -114.02089    -3643.239 
   23100   -101454.41   -91428.299    243.50641    20721    225887.03    59.520908    13.019238    44.442492    121.10099    433.35594    23.513674    22.167977    1.3596278    434.71557   -100.06278   -3688.2959 
   23200   -101491.61   -91418.687    244.64325    20721    225783.15    23.680892   -70.751439   -294.15147    435.94559    433.20679    23.512313    22.166694    1.4342045      434.641   -99.786183   -3701.4827 
   23300   -101462.71   -91386.807    244.71553    20721    225995.73     56.51492    131.78055   -98.429611    136.19383    433.39342    23.518313    22.172351    1.3408908    434.73431   -99.778768   -3730.7577 
   23400   -101515.47   -91381.536    246.12501    20721     225938.5    50.577198    138.47873    102.08573   -88.832876    433.29594    23.517981    22.172037     1.389629    434.68557   -125.61345   -3710.4356 
   23500   -101409.31   -91369.114    243.84846    20721    226000.38   -24.614549   -50.918409   -44.276462    21.351226    433.23127    23.522956    22.176728    1.4219655    434.65323   -125.52543   -3717.7116 
   23600   -101325.99   -91344.923    242.41235    20721    225878.11    144.25993    198.02718    39.179297    195.57332    433.12723    23.519416    22.173391    1.4739844    434.60122   -129.26673   -3751.5059 
   23700   -101328.11    -91319.21    243.08836    20721    226149.55   -58.939568    205.81775    -178.6678   -203.96866    433.50473    23.523295    22.177047    1.2852347    434.78997   -112.43206   -3778.8754 
   23800   -101402.26   -91272.047    246.03461    20721    225857.62   -4.1608163    23.852987   -83.711853    47.376417     433.4485    23.509632    22.164167    1.3133504    434.76185   -136.65099   -3814.1284 
   23900   -101371.93   -91292.015    244.81311    20721    226020.94   -2.6313618   -55.483972    118.67644   -71.086553    433.25221    23.523458    22.177201    1.4114943    434.66371   -130.25177   -3797.7931 
   24000   -101468.42    -91337.55     246.0505    20721    225837.97    4.7595933    41.753938    46.380446   -73.855604    433.46499    23.508162    22.162781    1.3051056    434.77009   -126.09045   -3761.8248 
   24100   -101278.47   -91310.672    242.09016    20721    225756.06   -31.844123    61.244439   -60.545151   -96.231657    433.32337     23.50774    22.162382    1.3759131    434.69929   -125.45487   -3790.2757 
   24200    -101368.6   -91302.731    244.47198    20721       225812    19.849403   -134.96798   -28.894871    223.41106    433.36583      23.5095    22.164042    1.3546855    434.72051   -112.22908   -3813.5719 
   24300    -101302.2   -91269.072    243.67666    20721     225938.4    2.0701151    148.17362    203.16811   -345.13138    433.66402    23.507993    22.162621    1.2055898    434.86961   -124.08743   -3833.1234 
   24400   -101419.94   -91273.237    246.43509    20721     225832.8   -24.145601    45.591091   -214.95963    96.931739    433.24727    23.513799    22.168095    1.4139661    434.66123   -127.84078   -3831.2376 
   24500   -101314.09   -91324.467     242.6201    20721    225851.08    32.280737   -95.856871    41.497155    151.20193     433.1276    23.517999    22.172055    1.4737995     434.6014   -126.27461   -3782.0446 
   24600   -101276.95   -91293.822    242.46246    20721    225912.57    121.25068   -41.737146    73.913712    331.57547    433.22532    23.518548    22.172572    1.4249382    434.65026   -127.43865   -3814.7629 
   24700   -101238.88   -91248.351    242.64219    20721    225880.89    97.969831    38.515245      589.428   -334.03375    433.42539     23.51147    22.165899    1.3249061    434.75029   -138.43837   -3849.9298 
   24800   -101321.21   -91234.794    244.97088    20721    225957.82    29.865719    155.07819    199.60226   -265.08329    433.28761    23.519212    22.173198    1.3937972     434.6814   -141.95226   -3858.2617 
   24900   -101328.96   -91207.418    245.82411    20721    225962.69    34.521371   -47.879172    183.26465   -31.821359    433.39581    23.516529    22.170669    1.3396942    434.73551   -133.35846   -3893.3791 
   25000   -101267.84   -91198.675    244.55204    20721    226010.52    31.267451    30.924697   -101.98023    164.85788    433.45197    23.517495    22.171579    1.3116174    434.76358   -120.83358   -3914.2245 
   25100   -101299.91   -91196.568    245.38211    20721    226058.04   -35.553079   -14.632662   -203.71134    111.68477      433.464     23.51964    22.173602     1.305598     434.7696   -117.14331   -3918.0129 
   25200   -101228.49   -91156.043    244.63161    20721    226260.58   -33.405082   -117.56069   -137.36734    154.71278    433.71213    23.523442    22.177186    1.1815347    434.89367    -127.8338    -3941.007 
   25300   -101283.77   -91158.276    245.92003    20721     226058.6     20.31483    26.303082   -163.11904    197.76045     433.6744    23.513964     22.16825    1.2004003     434.8748   -133.04211   -3943.1082 
   25400    -101401.8   -91214.361    247.42456    20721    225914.03   -42.880462   -66.320695    229.24235   -291.56304    433.60607    23.508295    22.162906    1.2345634    434.84064   -102.90339   -3921.6771 
   25500   -101247.27   -91160.948    244.96855    20721     226063.2    35.791038   -14.850277   -54.152639    176.37603     433.3469    23.523086    22.176851    1.3641483    434.71105   -123.06998   -3953.8122 
   25600   -101295.98   -91157.499    246.23554    20721    225966.76   -42.895247   -7.9890315    -252.0905    131.39379    433.47524    23.514587    22.168838    1.2999815    434.77522   -112.30928   -3969.7375 
   25700   -101372.73   -91179.881    247.55588    20721    226182.69   -13.647223   -75.395164    173.65448   -139.20099    433.49912    23.525171    22.178816    1.2880423    434.78716    -115.3112   -3941.2301 
   25800   -101292.16   -91193.134    245.27724    20721    226023.75    -37.68468   -104.59889   -185.45642    177.00127    433.63777    23.513144    22.167477    1.2187144    434.85649   -100.77227   -3945.7247 
   25900   -101354.29   -91182.412    247.04656    20721    226083.67   -43.503303   -25.232199   -229.43549    124.15778    433.58106    23.517798    22.171865     1.247069    434.82813   -131.72782   -3925.0164 
   26000   -101213.42   -91153.034     244.3387    20721    225972.39    4.5214917    57.161906    54.217226   -97.814657    433.59615    23.511601    22.166023    1.2395255    434.83567   -133.50002    -3957.671 
   26100   -101345.48    -91176.55    246.97495    20721    226128.57    43.848125    28.359607    85.960435    17.224332    433.63599    23.518644    22.172663    1.2196048     434.8556   -102.35177   -3965.3706 
   26200   -101238.82   -91168.219    244.58686    20721    226030.88   -21.971977    67.108863    37.513514   -170.53831    433.73717     23.51082    22.165287    1.1690174    434.90618   -113.59219   -3962.7002 
   26300   -101308.89   -91168.936    246.27135    20721    226094.48   -1.0460227    136.23664   -18.541048   -120.83366    433.74471    23.513923    22.168212    1.1652434    434.90996   -120.17736   -3956.3943 
   26400   -101181.02    -91084.22     245.2232    20721    226260.22    21.791919   -159.72647     27.74267    197.35956    433.73059    23.522923    22.176697    1.1723039     434.9029   -132.27646   -4025.9244 
   26500    -101301.3   -91114.797    247.40185    20721    226064.25    32.983096    62.046159    63.205113   -26.301983    433.67903    23.514132    22.168409    1.1980873    434.87711   -135.90442   -4001.4242 
   26600   -101247.93   -91099.612    246.47437    20721    226132.19    16.937242    27.320997    82.462697   -58.971967     433.6232    23.519179    22.173167    1.2260019     434.8492   -154.14478   -3995.0973 
   26700   -101243.75   -91070.373    247.08289    20721    226264.12   -15.710891   -59.569141   -25.211203    37.647671    433.91076    23.518242    22.172283    1.0822186    434.99298   -142.22831   -4031.8264 
   26800   -101392.71     -91075.8    250.56893    20721    226321.03   -65.724077    179.12676   -138.06562   -238.23337       433.93    23.520678     22.17458    1.0726004     435.0026   -124.09825   -4042.2894 
   26900   -101163.02   -91075.567    244.99616    20721    226043.71     -52.9542   -123.36784   -75.850449     40.35569    433.89897    23.507104    22.161783    1.0881164    434.98708   -119.77759   -4054.7518 
   27000    -101286.4   -91075.431    247.99609    20721    226163.43    19.960232   -14.561862   -40.206072    114.64863    433.98512    23.510994     22.16545    1.0450394    435.03016   -109.84788   -4068.7309 
   27100   -101229.89   -91081.494    246.47633    20721    226203.65   -11.328089   -25.550836    5.7395458   -14.172977     434.0286    23.511907    22.166311    1.0233001     435.0519   -111.60407    -4055.195 
   27200   -101214.58   -91031.119    247.32791    20721    226210.21   -37.016831   -20.522937    91.562453   -182.09001    433.85323    23.516999    22.171112    1.1109857    434.96421   -133.92201   -4084.4668 
   27300   -101154.95   -91035.924    245.76301    20721    226121.21    2.9451687    61.731433   -139.41212    86.516198    433.66274    23.517536    22.171618    1.2062309    434.86897   -130.90897   -4086.4869 
   27400   -101176.59   -91036.533     246.2737    20721    226215.06  -0.67889395   -65.293634    3.6378909    59.619062    433.91194     23.51566    22.169849    1.0816313    434.99357   -131.65646   -4085.0761 
   27500   -101223.75   -91035.555    247.44296    20721    226287.62    11.814372    12.185969    190.50996   -167.25281    434.01686    23.516588    22.170724    1.0291693    435.04603   -121.45499    -4095.268 
   27600   -101205.11   -90991.814     248.0524    20721    226283.86   -25.144472   -180.92993   -63.980186     169.4767    434.04468    23.515639     22.16983    1.0152587    435.05994   -121.45892   -4136.9745 
   27700   -101199.14   -91040.109    246.73447    20721    225970.27   -81.022132   -34.957483    5.1289642   -213.23788    433.74705      23.5074    22.162062    1.1640742    434.91113   -130.06124   -4087.9175 
   27800   -101148.07   -91023.776    245.89098    20721    226269.37    86.384491    55.252502   -2.6085676    206.50954     433.9193    23.518283    22.172322    1.0779503    434.99725   -122.74983   -4111.5594 
   27900   -101072.02   -91024.232    244.03278    20721    226199.04    97.814976    67.005317   -74.756838    301.19645    433.88626    23.515523     22.16972    1.0944676    434.98073   -116.52649   -4121.2997 
   28000   -101223.26   -91006.278    248.14202    20721    226183.47   -100.81081    -42.16915   -52.244423   -208.01885     434.0842    23.509352    22.163903   0.99550187     435.0797   -115.83233   -4131.2471 
   28100   -101277.12   -90975.552    250.19632    20721    226038.77   -104.60922   -151.58855   -259.31433    97.075217    434.01706    23.503648    22.158525    1.0290706    435.04613   -132.31381   -4151.1477 
   28200   -101205.53   -91057.434    246.46887    20721    226232.78   -19.787102    -28.40707   -197.25131    166.29707    433.85563    23.518107    22.172156    1.1097832    434.96542   -90.096203   -4108.6967 
   28300   -101208.36   -90998.459    247.96998    20721     225992.3    -15.42192    75.200493   -138.93093    17.464679    433.84251    23.505959    22.160704    1.1163442    434.95886   -109.20691     -4159.28 
   28400      -101119   -90958.825    246.76243    20721     225995.9    10.499734   -148.76711     42.33495    137.93136    433.92373    23.503946    22.158806    1.0757328    434.99947   -129.90652   -4178.4252 
   28500   -101079.67   -90945.841    246.12242    20721    225840.26    94.410642   -128.16036    185.17603    226.21626    433.46619    23.508249    22.162863    1.3045037     434.7707   -121.80554   -4209.1911 
   28600   -101103.54   -90926.696    247.16729    20721    225871.97    36.774083    130.78247    156.74119   -177.20141    433.94703    23.496871    22.152135    1.0640866    435.01111   -148.79137   -4200.7683 
   28700   -101158.02   -90878.133    249.66985    20721    225972.47   -42.929296    -182.6198    269.37149   -215.53958      433.888    23.503696     22.15857    1.0935984     434.9816   -126.21282   -4266.1137 
   28800   -101087.22    -90855.46    248.50083    20721    226029.08    22.438306   -31.680487   -193.24706    292.24246    433.87606    23.506963     22.16165     1.099568    434.97563   -139.07471   -4280.0245 
   28900   -101046.39   -90841.735    247.84263    20721    226205.93   -6.3839598    39.136351    10.388935   -68.677165    433.73261    23.520046    22.173984    1.1712966     434.9039   -124.36103   -4303.0709 
   29000   -101073.94   -90846.554    248.39481    20721    226143.23    10.270176    11.122081   -123.45966    143.14811    433.93175    23.511389    22.165823    1.0717238    435.00348   -127.86355   -4298.9319 
   29100   -100967.79   -90817.333    246.52637    20721    226230.76   -34.086707   -116.00601    13.701599  0.044289146    433.72589    23.521519    22.175373    1.1746529    434.90055   -152.63951   -4297.5359 
   29200   -100985.81   -90814.888    247.02338    20721    225958.19  -0.80421056   -13.221893   -103.62238    114.43164    433.74997    23.506693    22.161395    1.1626149    434.91259   -146.67387   -4318.1036 
   29300   -101001.83   -90806.426    247.61795    20721    226135.99     68.38643    136.98389     205.3034   -137.12801    433.79849    23.514624    22.168873    1.1383544    434.93685   -155.15625    -4318.062 
   29400   -101066.01   -90825.312    248.71813    20721    226075.24   -88.448917   -250.61127    208.34697   -223.08246    433.70327    23.514046    22.168328    1.1859669    434.88923   -152.63874   -4296.2831 
   29500   -100917.19   -90733.263    247.33917    20721     225969.5   -22.629478   -5.3848268   -7.3513431   -55.152264    433.46776    23.514932    22.169163    1.3037176    434.77148   -167.81855   -4378.3732 
   29600   -101025.45   -90752.115    249.51059    20721    225927.72    4.9169063    102.99992    122.50002   -210.74922    433.47546    23.512549    22.166917     1.299868    434.77533    -175.2755   -4357.8549 
   29700   -101031.07   -90719.653    250.43569    20721    225928.24     54.87043    89.930074   -43.270978    117.95219    433.39979    23.514629    22.168877    1.3377052    434.73749   -170.11446   -4398.4772 
   29800   -101018.09    -90739.53    249.63752    20721    225850.86   -2.3138954   -29.507959    -19.31466    41.880933    433.10776    23.518526    22.172552    1.4837187    434.59148   -143.53114   -4404.0037 
   29900   -100982.72   -90786.396    247.64038    20721    225657.33    37.487496    14.287268   -85.200581     183.3758     433.1448    23.507443    22.162103     1.465201       434.61   -135.60011   -4376.5402 
   30000   -100954.11   -90771.569    247.30566    20721    225921.52   -36.858716    29.951256    -63.80019   -76.727214    433.19883    23.519732    22.173689    1.4381849    434.63702   -128.23757   -4387.4331 
   30100   -100990.98   -90785.627    247.85968    20721    225714.97      29.9092    260.41438   -34.137163   -136.54962    433.21642    23.508502    22.163101     1.429392    434.64581   -151.12903   -4360.3811 
   30200   -101125.62   -90782.383    251.20836    20721    225836.84    -114.8765   -23.867934    216.08418   -536.84574    433.23877    23.514241    22.168511    1.4182161    434.65698   -133.66891   -4372.8347 
   30300   -100887.17   -90754.989    246.08255    20721    225880.61   -80.713065   -83.632536   -23.568521   -134.93814     433.2004     23.51756    22.171641     1.437398     434.6378    -137.9938    -4396.581 
   30400   -101039.85   -90747.884    249.96315    20721    225988.99   -21.622199   -59.193258   -38.244378    32.571039    433.21242    23.522875    22.176652    1.4313906    434.64381   -145.33602   -4398.1506 
   30500   -100924.48   -90746.052    247.20574    20721    225759.68   -69.607151   -116.34158   -78.084895   -14.394975    433.12888    23.513205    22.167535    1.4731617    434.60204   -132.97633   -4418.1537 
   30600   -100981.27   -90711.502     249.4241    20721     225785.4    37.162855    168.36866    296.42785   -353.30795    433.07734    23.515944    22.170117    1.4989285    434.57627   -134.85734    -4456.649 
   30700   -100891.35   -90701.478    247.48352    20721    225663.22    72.018783     96.22104    184.30791   -64.472598    432.90618    23.514228    22.168499    1.5845116    434.49069    -149.7285   -4458.6408 
   30800    -100985.1    -90698.52    249.83232    20721    225745.24   -35.680446   -44.258527   -270.06981      207.287    432.84805    23.520079    22.174016     1.613574    434.46163   -139.39473   -4464.6648 
   30900   -100992.57   -90668.901    250.73315    20721    225891.73   -63.143285   -187.44575   -71.500338    69.516234    433.07951    23.521421    22.175281    1.4978441    434.57736   -156.13891   -4470.8231 
   31000   -100913.25   -90634.758    249.63593    20721    225844.38   -40.792864   -125.00238     -23.3981    26.021886    432.93226    23.522955    22.176727    1.5714703    434.50373   -162.67613   -4501.7958 
   31100   -100875.91   -90618.271    249.12936    20721    225820.77    54.026485    37.067395    27.996649    97.015413    433.15732    23.515614    22.169806    1.4589398    434.61626   -169.27451    -4520.048 
   31200   -100900.89   -90667.997    248.52837    20721    225755.57   -85.585751   -88.399444    153.85493   -322.21274    432.88707    23.519557    22.173524    1.5940629    434.48114   -160.02994   -4475.2509 
   31300   -100908.63   -90635.003    249.51785    20721    225620.93   -47.430823    38.438024    94.413511     -275.144    433.02402    23.508825    22.163405    1.5255904    434.54961   -146.13358   -4528.8067 
   31400   -100965.21   -90636.742    250.84973    20721     225592.4    42.837546    166.62843   -169.37595    131.26016    433.04183    23.506855    22.161548     1.516684    434.55852   -157.44636   -4523.0007 
   31500   -100838.27    -90613.89    248.32178    20721    225674.11   -45.049479   -92.445944   -29.570622    -13.13187    433.12151    23.508949    22.163522    1.4768464    434.59835   -156.74458   -4541.4067 
   31600   -100859.45   -90634.989    248.32362    20721    225688.94    61.611212   -25.891935    233.50367   -22.778102     433.0461    23.511768     22.16618    1.5145489    434.56065   -148.76552    -4532.594 
   31700   -100922.64   -90623.467    250.13811    20721    225544.67     12.93531   -138.71752   -84.349196    261.87265    432.90145    23.508179    22.162796    1.5868764    434.48832   -154.10452   -4541.4914 
   31800   -100936.49   -90664.556     249.4766    20721    225658.52     30.02582    26.287163   -216.91486    280.70516     433.4341    23.499658    22.154764    1.3205512    434.75465   -148.55854   -4505.0548 
   31900    -100896.4   -90608.788    249.85738    20721    225766.43    11.238813    71.752632     153.3351   -191.37129    433.46047    23.504561    22.159386    1.3073636    434.76784   -153.00128   -4555.3803 
   32000   -100924.34   -90644.994    249.65672    20721    225750.99    44.208491    98.124441    119.99599   -85.494961     433.2367    23.509827     22.16435    1.4192523    434.65595   -132.65717   -4541.1141 
   32100   -100919.22   -90574.604    251.24182    20721    225729.97    -154.3852   -93.510714   -190.43746   -179.20742    432.92204    23.517274    22.171371    1.5765814    434.49862   -145.31489   -4592.6336 
   32200    -100790.9   -90585.282    247.86594    20721    225813.48    53.376811    201.22388    50.977794   -92.071244    433.16466    23.515036    22.169261    1.4552675    434.61993   -150.98321   -4585.3866 
   32300   -100805.02    -90617.95    247.41555    20721    225558.84   -8.0528366      6.49719   -161.02178    130.36608     433.1042    23.503414    22.158304    1.4855017     434.5897   -132.91359   -4576.0821 
   32400   -100815.55   -90573.713    248.74556    20721    225732.86     63.70622    180.92779    172.25937    -162.0685    433.06395    23.513571     22.16788    1.5056243    434.56958   -133.84886   -4618.5233 
   32500   -100841.59    -90565.44    249.57894    20721    225873.59     53.75877    97.087861    114.55091   -50.362465    433.30813    23.514271     22.16854    1.3835339    434.69167   -120.66637   -4637.2432 
   32600   -100910.51   -90588.435    250.69446    20721    225712.97   -42.907907    151.30968   -156.13767   -123.89572    433.26375    23.507113    22.161791    1.4057253    434.66947   -124.36374   -4613.5623 
   32700   -100804.18   -90550.094    249.04323    20721    225606.89   -24.889707   -154.67242    236.25832   -156.25502    432.89619    23.511563    22.165987    1.5895034     434.4857   -120.19478   -4659.5064 
   32800   -100945.58   -90548.542     252.5151    20721     225878.2   -19.262724 -0.032586968   -9.2769913   -48.478593    432.99714    23.522954    22.176726     1.539031    434.53617   -111.82861   -4663.9962 
   32900   -100859.54   -90545.137    250.50818    20721    225818.27   -90.754235   -27.764579   -320.34138    75.843255      433.165    23.515276    22.169487    1.4551024     434.6201   -126.98143   -4649.9878 
   33000   -100813.64   -90505.802    250.34877    20721    225809.23    87.836502   -94.464469   -69.867116    427.84109    433.22766    23.513105     22.16744    1.4237718    434.65143   -133.24219   -4693.0189 
   33100   -100733.54   -90496.425    248.63109    20721    225614.38    23.676029    197.31639    85.189596    -211.4779    433.13556    23.505456     22.16023     1.469821    434.60538    -114.5855   -4724.8823 
   33200   -100827.23   -90519.208    250.35322    20721     225868.3    13.548475    56.385926    59.976284   -75.716786    433.36864    23.512354    22.166733    1.3532785    434.72192   -105.24195   -4706.5713 
   33300   -100829.96   -90518.376     250.4397    20721    225647.47   -11.974214    4.6740172   -202.45196     161.8553    433.25916    23.503826    22.158693    1.4080225    434.66718   -121.03247   -4698.1653 
   33400   -100798.03   -90486.467    250.43923    20721    225863.73    47.743002    18.369831     73.68617    51.173004    432.92008    23.524294    22.177989    1.5775599    434.49764   -132.58943   -4716.1014 
   33500   -100807.07    -90511.57     250.0489    20721    225727.01     53.38141   -19.330257   -84.348516      263.823     432.9819    23.515494    22.169693    1.5466509    434.52855   -123.21396   -4706.3007 
[...]
  491800   -95916.568   -84451.591    278.45234    20721    220978.71   -35.381621    -61.76529     -104.656    60.276431    423.47612    23.526535    22.180102    6.2995381    429.77566    5538.6787   -23607.351 
  491900   -96053.866   -84444.477     281.9597    20721    220837.82     97.01548  0.073787422    32.436511    258.53614      423.572    23.516372    22.170521    6.2516023     429.8236    5526.2881   -23616.793 
  492000   -95882.331   -84522.205    275.90579    20721    220444.71    88.097687    209.97959    316.20364   -261.89018    423.06889    23.509398    22.163946     6.503155    429.57205    5547.1046   -23575.123 
  492100   -95982.817   -84530.617    278.14202    20721    220732.54    60.376388    111.16569    88.421928   -18.458457    422.88651    23.529813    22.183193    6.5943467    429.48085    5548.3491   -23557.875 
  492200   -96071.258   -84533.457    280.22103    20721    220548.13   -61.534553    146.26474   -327.85385   -3.0145467    422.83248    23.521485    22.175341      6.62136    429.45384    5535.9948   -23546.448 
  492300   -96137.492   -84557.818      281.238    20721    220545.42    46.978617    131.96972    87.168049   -78.201913    423.10503    23.513763    22.168061    6.4850862    429.59011    5537.3789   -23528.812 
  492400   -95929.735   -84498.155    277.64124    20721       220649   -79.834061    -21.99238    -267.2925    49.782695     423.3299    23.513037    22.167377     6.372649    429.70255    5536.4434   -23578.962 
  492500   -95944.362   -84506.585    277.79175    20721    220685.13    65.379127     223.3601   -58.982758    31.760039     423.2146    23.518165    22.172211    6.4302978     429.6449    5531.4796   -23573.515 
  492600   -96099.636   -84555.641    280.37146    20721    220641.13   -100.56114   -120.35947    105.05057   -286.37452    423.28716    23.513804      22.1681     6.394019    429.68118    5559.3842   -23546.908 
  492700   -96037.623   -84524.083    279.63181    20721     220485.6    31.714934    49.104094     12.62229    33.418417    422.97043    23.514315    22.168581    6.5523863    429.52281    5545.5597    -23577.67 
  492800   -96018.386   -84573.751    277.95827    20721    220790.28    124.61216    64.149548    31.898678    277.78827    422.92903    23.531707    22.184978    6.5730851    429.50211    5539.6811   -23517.862 
  492900   -96028.811   -84537.431     279.0936    20721    220687.23   -55.424979    8.8155141   -24.097283   -150.99317    423.17367    23.519414    22.173388    6.4507642    429.62444    5536.0943   -23547.591 
  493000   -96024.332    -84548.34    278.71986    20721    220851.34   -15.304526   -78.374119   -113.90814    146.36869    423.32892    23.523842    22.177564    6.3731408    429.70206    5523.4385   -23522.806 
  493100   -95957.439   -84558.708    276.84342    20721    220741.49    100.21102    184.45776    18.453353    97.721945    423.35626    23.517232    22.171332    6.3594697    429.71573    5543.9651   -23541.659 
  493200   -95973.707   -84509.788    278.42665    20721    221147.47   -28.707996   -49.040826   -221.77859    184.69543    423.70658    23.529116    22.182535    6.1843121    429.89089    5541.5247   -23572.257 
  493300   -96050.013   -84489.916    280.76254    20721    220960.55    -8.214782    149.18933   -60.258637   -113.57504    423.68297    23.519825    22.173776     6.196114    429.87909    5543.1352   -23603.068 
  493400   -96061.729   -84502.299    280.74634    20721    220827.51    7.0876203   -60.650773    182.63126   -100.71763    423.63526    23.514067    22.168348     6.219969    429.85523    5543.9215   -23599.416 
  493500   -95953.577   -84469.259    278.92209    20721    220715.71    30.138167   -70.406346     126.6559    34.164942    423.60239    23.509026    22.163595    6.2364043     429.8388    5499.4948   -23591.772 
  493600   -95999.916   -84486.568    279.62713    20721    221097.29    63.465546    138.86454   -9.9036808    61.435773     423.8826     23.52156    22.175412    6.0962982     429.9789    5507.7645   -23572.324 
  493700   -95842.866   -84476.819    276.04961    20721     220928.4   -53.626304    176.96913    -136.6184   -201.22964    424.02516    23.508622    22.163214    6.0250188    430.05018    5493.2778    -23568.71 
  493800   -95978.557   -84495.317    278.89589    20721    221079.51    87.484644    59.518988    208.49288   -5.5579412    423.67721    23.526315    22.179895     6.198997     429.8762    5508.6707   -23569.962 
  493900   -95974.416   -84487.008    278.99714    20721    220994.57    22.689847   -171.26928    157.48367    81.855159    423.40517    23.529351    22.182756    6.3350146    429.74019    5521.6028   -23592.511 
  494000   -96006.045   -84490.448    279.68174    20721    221304.03   -22.832319    -151.4247    39.100963    43.826776     423.4209    23.545382     22.19787    6.3271514    429.74805    5538.3429   -23596.381 
  494100   -96110.663   -84493.534    282.14769    20721    221290.82   -95.606975   -272.38351    -20.69243    6.2550171    423.24048    23.549697    22.201938    6.4173623    429.65784    5535.1335   -23587.529 
  494200   -96060.373   -84527.983    280.08962    20721    221184.18    52.818886    282.94315   -66.305745   -58.180745    422.97974    23.551277    22.203428    6.5477309    429.52747    5543.3793   -23573.094 
  494300   -96099.185   -84539.767    280.74607    20721    220958.12    34.564676   -97.796393    180.20083    21.289589    423.12336    23.535243    22.188312    6.4759209    429.59928    5558.3621   -23584.746 
  494400   -96132.982   -84510.085    282.28779    20721     221305.4   -11.387255   -112.32318    91.432729   -13.271314    423.28534    23.549225    22.201493    6.3949293    429.68027    5566.8919   -23612.297 
  494500   -96047.079   -84562.945    278.91761    20721    221292.32   -2.7088867    270.78901    6.0864496   -285.00212    423.25672    23.549325    22.201587    6.4092406    429.66596    5589.0554   -23581.221 
  494600   -95953.997   -84523.895    277.60532    20721    221385.19   -13.489685    57.963961   -168.26491    69.831895    423.49687    23.547586    22.199948    6.2891651    429.78603    5580.4754   -23607.435 
  494700   -95961.385   -84547.142    277.22018    20721    221119.44   -50.784338    63.181151   -122.19889   -93.335274    423.50021    23.533356    22.186533     6.287496     429.7877    5562.8431   -23577.421 
  494800   -95998.694   -84554.712    277.94243    20721    220872.66    17.363688    171.69797    259.80315   -379.41006    423.57438    23.518161    22.172207    6.2504113    429.82479    5541.9731   -23560.288 
  494900   -95986.933   -84571.793    277.24193    20721    221212.38   0.28838468   -31.667826    -179.4425    211.97548    423.85975    23.528316    22.181781    6.1077246    429.96748    5548.2974   -23539.143 
  495000   -95997.166   -84554.368    277.91369    20721    220863.87     16.49444   -16.239429    75.410155   -9.6874067    423.75465     23.51269    22.167049    6.1602752    429.91492    5545.5938   -23568.541 
  495100   -95970.122   -84519.841     278.0954    20721    221070.25    129.78389    246.02398   -10.526715    153.85439    424.10233    23.514028    22.168311    5.9864349    430.08877    5562.3364   -23620.092 
  495200   -96082.251   -84531.662    280.53162    20721    221189.34    25.317477    24.496908    3.3119801    48.143543    424.28848    23.515201    22.169417    5.8933618    430.18184     5547.308   -23585.757 
  495300   -96048.799   -84503.326    280.40738    20721    221541.04   -81.362435   -54.483957   -166.02151   -23.581834    424.29166      23.5338    22.186951    5.8917702    430.18343    5556.2162   -23607.609 
  495400   -95964.497   -84494.708    278.56923    20721    221269.56   -166.84799   -524.00579     -52.7548    76.216611    424.03364    23.526531    22.180098    6.0207819    430.05442    5538.4102   -23604.162 
  495500   -96061.916   -84536.946     279.9094    20721    221168.73    4.1466443    54.824464   -194.04643     151.6619    424.27997    23.514341    22.168606     5.897616    430.17758    5562.2134   -23601.649 
  495600   -95894.847   -84484.739    277.11973    20721    221520.21    26.876272    182.53532   -119.40732    17.500816    424.57172    23.524931     22.17859    5.7517424    430.32346    5562.4901   -23644.908 
  495700   -95904.197   -84518.101    276.53655    20721    221240.74   -27.405192    175.27294   -47.315048   -210.17347     424.2416    23.519232    22.173217    5.9168009     430.1584      5546.57   -23601.794 
  495800   -96058.895   -84578.013    278.83863    20721    221209.42   -41.694785   -119.15608  -0.85036494   -5.0779127    424.54962    23.509034    22.163603    5.7627896    430.31241      5577.82   -23577.687 
  495900   -96022.691   -84549.839     278.6436    20721    221556.52    53.312417   -104.00986    26.832589    237.11452      424.543    23.527655    22.181158    5.7661014     430.3091    5553.0452   -23576.001 
  496000   -96046.256   -84597.828     278.0504    20721    221455.26   -40.445962   -71.613493     7.678629   -57.403021    424.33627    23.528007     22.18149    5.8694638    430.20574    5561.0892    -23535.28 
  496100   -95986.022   -84586.552    276.86135    20721    221326.34    91.719545   -85.777786    253.51368    107.42274    424.29331    23.522348    22.176155    5.8909454    430.18425    5579.3257   -23577.021 
  496200   -95980.899   -84537.381    277.93117    20721    221400.03   -29.145595    62.052787    109.89682   -259.38639    424.18497    23.529268    22.182678    5.9451159    430.13008    5562.4758   -23601.639 
  496300   -95921.496   -84534.477    276.55896    20721    221389.63   -21.661562   -74.674194    223.41258   -213.72307    424.56691    23.518129    22.172177     5.754143    430.32106    5543.5062   -23588.945 
  496400    -95933.58   -84519.267    277.22184    20721    221257.92    88.484376   -173.44331    105.67657    333.21987    424.50495    23.512849    22.167199    5.7851265    430.29007    5554.2861   -23625.245 
  496500   -96104.346   -84540.624    280.85058    20721    221397.83   -49.218185    93.116384   -159.45163   -81.319308    424.91294    23.508987    22.163558    5.5811287    430.49407    5551.8981   -23594.503 
  496600     -95962.5   -84506.165    278.24246    20721     221552.9    129.26437   -73.003002    295.84093    164.95517    424.78325    23.520808    22.174703    5.6459731    430.42923    5541.2944   -23620.721 
  496700   -96033.463   -84505.203     279.9893    20721     221543.8     62.65636    146.68314    118.49746    -77.21151    424.72848    23.521842    22.175677    5.6733623    430.40184    5553.9249   -23632.856 
  496800   -95914.056   -84474.802    277.82761    20721    221550.78    56.093823    228.18125   -232.52664    172.62686     424.9615    23.515763    22.169946    5.5568498    430.51835     5550.413    -23660.38 
  496900   -95929.722   -84467.387    278.38817    20721    221312.87     14.06674   -7.6284448    247.35244   -197.52378    424.50931    23.515647    22.169837    5.7829427    430.29226    5536.3209   -23661.496 
  497000   -96037.548   -84477.629    280.75822    20721    221505.55   -13.917953    43.959925   -84.972076  -0.74170656    424.57627    23.524027    22.177737    5.7494657    430.32573     5523.158   -23632.124 
  497100   -96068.442   -84487.395    281.27136    20721    221542.55   -89.341477     103.8096    -247.5887   -124.24532    424.73106    23.521704    22.175547    5.6720676    430.40313    5539.3818   -23634.264 
  497200    -95982.32   -84492.705    279.05072    20721    221696.21    -108.9184    -9.936549    8.4660666   -325.28472    424.85879    23.526322    22.179902    5.6082048      430.467     5545.162   -23631.318 
  497300   -95954.906   -84475.617    278.79995    20721    221603.37    31.453652    117.91143   -180.92109    157.37062    424.67033    23.526615    22.180177    5.7024353    430.37276    5558.8208   -23674.224 
  497400   -96016.517   -84468.795    280.46199    20721    221789.91    47.461096   -98.264992    14.839752    225.80853    424.45369     23.54252    22.195172    5.8107569    430.26444    5561.5049   -23677.631 
  497500    -96006.96    -84537.07    278.57167    20721     221391.4    27.189139   -9.8215004   -98.888689    190.27761    424.25586    23.526844    22.180393    5.9096711    430.16553    5585.9448   -23648.817 
  497600    -96079.08   -84529.407    280.50936    20721    221580.21    18.519177   -80.092468    32.889224    102.76077    424.40621    23.532704    22.185918    5.8344965     430.2407    5583.9255   -23648.726 
  497700   -95915.259   -84566.018    275.64143    20721    221422.93    148.07845    48.778157    182.69093    212.76626    424.33885    23.526218    22.179803    5.8681732    430.20703    5570.3016   -23609.524 
  497800   -96078.978   -84538.307    280.29074    20721    221484.58   -51.540824   -140.71051   -139.21501    125.30305    424.53786    23.523977    22.177691     5.768671    430.30653    5572.0048   -23632.021 
  497900    -95991.25   -84544.557    278.00829    20721    220883.27   -33.581427   -64.079669   -33.493285   -3.1713274    423.89817    23.509742     22.16427    6.0885146    429.98669    5582.1225   -23657.788 
  498000   -96089.402   -84577.366    279.59526    20721    221236.53    92.987965    138.51311   -142.87979    283.33057    424.14906    23.521574    22.175425    5.9630688    430.11213     5578.875   -23618.379 
  498100   -96045.526   -84556.058    279.04716    20721    221322.16   -14.625145   -6.9776936   -216.87449    179.97675    424.07067      23.5283    22.181766    6.0022661    430.07293    5564.5286    -23619.11 
  498200   -96048.376   -84561.744    278.97828    20721    221304.19     8.880794   -180.71802    159.69366    47.666738    424.01376    23.528924    22.182354    6.0307214    430.04448    5569.9483   -23621.181 
  498300   -95952.896   -84579.144    276.23675    20721    221386.73    96.431095    92.659754    252.63978   -56.006247    423.99904    23.533719    22.186875    6.0380811    430.03712    5590.6989   -23629.184 
  498400   -96161.819   -84537.613    282.31957    20721    221581.28   -64.263195   -111.04532   -238.91797    157.17371      424.077    23.541894    22.194582    5.9990991     430.0761    5578.8668   -23645.484 
  498500   -96141.539   -84619.194    279.84565    20721    221325.63    3.5460045   -19.622816   -99.769854    130.03068     424.0548    23.528924    22.182355    6.0101983      430.065     5601.108   -23598.718 
  498600   -96072.749   -84564.982     279.4916    20721    221622.56    24.405424    117.04464   -54.537836    10.709471    424.49231    23.532566    22.185788    5.7914442    430.28376     5582.536   -23626.341 
  498700   -96115.367   -84579.897    280.16443    20721    221378.42    31.089851     55.36024    132.22637    -94.31706    424.23181    23.526821    22.180372    5.9216967     430.1535    5582.9056   -23620.527 
  498800   -95976.141   -84561.208    277.23692    20721    221176.64    37.726098    87.280122    37.479388   -11.581216    424.64605    23.504624    22.159445    5.7145765    430.36062    5578.7593   -23643.458 
  498900   -96113.686   -84533.333    281.25451    20721    221522.68    97.924312    74.601293    16.844613    202.32703    425.13479    23.509478    22.164022    5.4702053    430.60499    5589.6329   -23676.993 
  499000   -96026.891   -84513.035    279.63948    20721    221086.69   -83.468997   -83.213649   -234.44086    67.247517    424.35577     23.50788    22.162514    5.8597148    430.21549    5592.0812   -23706.177 
  499100   -96054.965   -84567.901    278.98877    20721    221389.19    43.100581    226.74493    81.199364   -178.64255    424.81918    23.511122    22.165571    5.6280106    430.44719    5589.0795    -23647.29 
  499200   -96050.278   -84572.718    278.75794    20721    221489.21     144.8432    227.63994    279.43272    -72.54306    424.75286    23.518269    22.172309    5.6611702    430.41403    5586.7036   -23644.135 
  499300   -95981.863   -84540.233    277.88531    20721    221496.82   -53.269033    36.475166   -175.65396   -20.628309      424.609    23.522656    22.176445    5.7330981     430.3421    5610.1001   -23691.843 
  499400   -96123.049   -84565.062    280.71129    20721    221095.71    45.043442   -59.371377    28.415729    166.08597    424.38579    23.507528    22.162182    5.8447038     430.2305    5599.6735   -23677.429 
  499500   -95953.095   -84489.488    278.41907    20721    221527.26   -2.1222234    196.68914     26.07892   -229.13473     424.7872    23.519338    22.173317    5.6440011     430.4312    5583.4777   -23720.348 
  499600   -95966.844   -84534.965    277.64849    20721    221395.75   -53.450037    4.3244564   -100.93799   -63.736579    424.68746    23.515117    22.169337     5.693871    430.38133    5604.7283   -23699.807 
  499700   -96188.016   -84513.458    283.54249    20721    221348.94   -86.872629     -218.404    162.83165   -205.04553    424.59517    23.515186    22.169402    5.7400162    430.33518    5594.6757   -23714.611 
  499800   -96062.061     -84512.7    280.50179    20721    221388.01   -42.063362    156.15368   -188.87179   -93.471971    424.08072    23.531521    22.184803    5.9972423    430.07796    5602.6156   -23724.478 
  499900   -96032.443   -84579.305    278.16482    20721    221378.18   -55.717296    27.619702    106.56712   -301.33871    423.91514    23.535594    22.188642    6.0800292    429.99517    5606.6966   -23662.277 
  500000   -95987.335   -84532.225     278.2127    20721    221443.03   -3.6923142    -300.0327    252.16295    36.792807    423.98304    23.537156    22.190115    6.0460787    430.02912     5594.095   -23700.812 
Loop time of 70717.3 on 32 procs for 500000 steps with 20721 atoms

Performance: 1.222 ns/day, 19.644 hours/ns, 7.070 timesteps/s
97.5% CPU use with 32 MPI tasks x no OpenMP threads

MPI task timing breakdown:
Section |  min time  |  avg time  |  max time  |%varavg| %total
---------------------------------------------------------------
Pair    | 13531      | 14544      | 16370      | 784.6 | 20.57
Bond    | 0.80815    | 0.88315    | 1.0859     |   7.1 |  0.00
Kspace  | 13330      | 15160      | 16173      | 769.8 | 21.44
Neigh   | 10514      | 12340      | 14244      |1296.6 | 17.45
Comm    | 502.42     | 1809.3     | 3827.1     |2243.2 |  2.56
Output  | 7.3586     | 28.87      | 39.546     | 192.2 |  0.04
Modify  | 25416      | 26748      | 29419      | 782.8 | 37.82
Other   |            | 86.21      |            |       |  0.12

Nlocal:    647.531 ave 698 max 589 min
Histogram: 1 1 2 4 11 2 1 5 4 1
Nghost:    7341.69 ave 7798 max 6835 min
Histogram: 1 3 4 6 4 3 0 2 2 7
Neighs:    237871 ave 269114 max 208750 min
Histogram: 1 2 7 9 1 1 1 2 4 4
FullNghs:  475745 ave 540049 max 415027 min
Histogram: 1 2 6 11 0 1 1 2 4 4

Total # of neighbors = 15223849
Ave neighs/atom = 734.706
Ave special neighs/atom = 2
Neighbor list builds = 500000
Dangerous builds not checked
write_data production.R1
PPPM initialization ...
  extracting TIP4P info from pair style
WARNING: Using 12-bit tables for long-range coulomb (../kspace.cpp:316)
  G vector (1/distance) = 0.345865
  grid = 400 48 48
  stencil order = 5
  estimated absolute RMS force accuracy = 0.000402747
  estimated relative force accuracy = 1.21286e-06
  using double precision FFTs
  3d grid and FFT values/proc = 67260 38400
write_restart restartproduction.R1
PPPM initialization ...
  extracting TIP4P info from pair style
WARNING: Using 12-bit tables for long-range coulomb (../kspace.cpp:316)
  G vector (1/distance) = 0.345865
  grid = 400 48 48
  stencil order = 5
  estimated absolute RMS force accuracy = 0.000402747
  estimated relative force accuracy = 1.21286e-06
  using double precision FFTs
  3d grid and FFT values/proc = 67260 38400
Total wall time: 19:38:38
