LAMMPS (30 Jul 2016)
# Sets up LAMMPS simulation for transient melting of ice: TIP4P/Ice
# Ensure cold thermostats do not move
# Thinbox: 16x1x1
# Defects
# Order param l=2

#### setting MD parameters ####
units real
boundary p p p
atom_style full

# read ice box in restart file
#read_data ice-ih-restart.data
read_restart restart.state
  orthogonal box = (0.464675 0.0250745 0.0236395) to (435.611 23.5061 22.1609)
  32 by 1 by 1 MPI processor grid
  20736 atoms
  13824 bonds
  6912 angles
  2 = max # of 1-2 neighbors
  1 = max # of 1-3 neighbors
  1 = max # of 1-4 neighbors
  2 = max # of special neighbors

#replicate 16 boxes, 16x1x1


#### force field definition ####
pair_style      lj/cut/tip4p/long 2 1 1 1 0.1577 10.0
pair_modify	tail yes

kspace_style	pppm/tip4p 1.0e-6

bond_style	harmonic
angle_style	harmonic
dihedral_style	none
improper_style	none

bond_coeff	1 450.0 0.9572
angle_coeff	1 55.0 104.52


# reset pair coeff
pair_coeff	* * 0.0 0.0

#OO
pair_coeff	2 2 0.21085 3.1668
#OH
pair_coeff	* 1 0.0000 0.0000

neighbor        2.0 bin
neigh_modify    every 1 delay 1 check no

timestep	2.0
fix		constraints all shake 0.000001 20 0 b 1 a 1
  0 = # of size 2 clusters
  0 = # of size 3 clusters
  0 = # of size 4 clusters
  6912 = # of frozen angles

group water type 1 2
20736 atoms in group water

#*********** SIMULATION PARAMETER TO ADJUST ****************
#Box dimensions
variable lx equal lx
variable ly equal ly
variable lz equal lz

### Temperature of the hot and cold regions ####
variable thi equal 375
variable tlo equal 215
variable runpressure equal 0.986923
# Configuration equilibrated in density and temperature

# Define dx here

variable lx equal lx
variable ly equal ly
variable lz equal lz

variable xlo equal xlo
variable xhi equal xhi


variable dx equal 2.0

### ADD IN DEFECTS AT THE CENTRE OF THE HOT THERMOSTAT ###
variable x1 equal ${lx}/4.0
variable x1 equal 435.145850029986/4.0
variable y1 equal ${ly}/2.0
variable y1 equal 23.4810510348345/2.0
variable z1 equal ${lz}/2.0
variable z1 equal 22.1372210801953/2.0

region kill1 sphere ${x1} ${y1} ${z1} 3
region kill1 sphere 108.786462507496 ${y1} ${z1} 3
region kill1 sphere 108.786462507496 11.7405255174173 ${z1} 3
region kill1 sphere 108.786462507496 11.7405255174173 11.0686105400976 3
delete_atoms region kill1 compress no bond yes mol yes
Deleted 12 atoms, new total = 20724
Deleted 8 bonds, new total = 13816
Deleted 4 angles, new total = 6908




variable thip equal ${thi}*2.0/3.0
variable thip equal 375*2.0/3.0
variable tlop equal ${tlo}*2.0/3.0
variable tlop equal 215*2.0/3.0
variable cbl equal ${lx}*3.0/4.0-${dx}
variable cbl equal 435.145850029986*3.0/4.0-${dx}
variable cbl equal 435.145850029986*3.0/4.0-2
variable cbh equal ${lx}*3.0/4.0+${dx}
variable cbh equal 435.145850029986*3.0/4.0+${dx}
variable cbh equal 435.145850029986*3.0/4.0+2
variable hbl equal ${lx}*1.0/4.0-${dx}
variable hbl equal 435.145850029986*1.0/4.0-${dx}
variable hbl equal 435.145850029986*1.0/4.0-2
variable hbh equal ${lx}*1.0/4.0+${dx}
variable hbh equal 435.145850029986*1.0/4.0+${dx}
variable hbh equal 435.145850029986*1.0/4.0+2


#***************************************************
## EQUILIBRATION PERIOD - to reach the steady state ###
#run 0

#reset the timestep to start your production run
reset_timestep 0

# define a group to perform averages
#group s1 type 1
###*** SYSTEM THERMOSTATTING: HOT and COLD regions ***###

fix NVE all nve
fix PRESS all press/berendsen aniso ${runpressure} ${runpressure} 500000 couple yz
fix PRESS all press/berendsen aniso 0.986923 ${runpressure} 500000 couple yz
fix PRESS all press/berendsen aniso 0.986923 0.986923 500000 couple yz


### Apply THERMOSTATS ###

#set up the "hot region" in the middle of the box
region hot block ${hbl} ${hbh} 0 ${ly} 0 ${lz} units box
region hot block 106.786462507496 ${hbh} 0 ${ly} 0 ${lz} units box
region hot block 106.786462507496 110.786462507496 0 ${ly} 0 ${lz} units box
region hot block 106.786462507496 110.786462507496 0 23.4810510348345 0 ${lz} units box
region hot block 106.786462507496 110.786462507496 0 23.4810510348345 0 22.1372210801953 units box


#set up the "cold region" at the left end of the box
region cold block ${cbl} ${cbh} 0 ${ly} 0 ${lz} units box
region cold block 324.359387522489 ${cbh} 0 ${ly} 0 ${lz} units box
region cold block 324.359387522489 328.359387522489 0 ${ly} 0 ${lz} units box
region cold block 324.359387522489 328.359387522489 0 23.4810510348345 0 ${lz} units box
region cold block 324.359387522489 328.359387522489 0 23.4810510348345 0 22.1372210801953 units box

#set up the "cold region" at the right end of the box
#region cold2 block ${h2bl} ${xhi} 0 ${ly} 0 ${lz} units box


#Cold regions  unification
#region cold union 2 cold1 cold2 units box

#Create group of cold molecules
####group cool_ice region cold
####group cool_ice include molecule

####compute cold_temp cool_ice temp
####fix cold_rescale water temp/rescale 1 ${tlo} ${tlo} 0.0001 1.0
####fix_modify cold_rescale temp cold_temp

#this calculates the temperature using only the atoms in the "hot region"
#compute hot_temp all temp/region hot

# calculate the temperature using only WATER in the "hot region"
compute hot_temp water temp/region hot

#this calculates the temperature using only WATER in the "cold region"
compute cold_temp water temp/region cold


#set up a basic velocity rescale for the hot region WATER with thip
fix hot_rescale water temp/rescale 1 ${thip} ${thip} 1.0 1.0
fix hot_rescale water temp/rescale 1 250 ${thip} 1.0 1.0
fix hot_rescale water temp/rescale 1 250 250 1.0 1.0
#change the thermostat to only act on the "hot region"
#this is done by passing it the "hot temp" compute that we defined above
fix_modify hot_rescale temp hot_temp

#set up a basic velocity rescale for the cold region
fix cold_rescale water temp/rescale 1 ${tlop} ${tlop} 1.0 1.0
fix cold_rescale water temp/rescale 1 143.333333333333 ${tlop} 1.0 1.0
fix cold_rescale water temp/rescale 1 143.333333333333 143.333333333333 1.0 1.0
#change the thermostat to only act on the "cold region"
#this is done by passing it the "cold temp" compute that we defined above
fix_modify cold_rescale temp cold_temp

### Ensure MOMENTUM CONSERVATION ###

#ensure that linear momentum is conserved despite the "thermostatting" by velocity rescaling
fix cons_mom all momentum 1 linear 1 1 1


thermo 100
thermo_style custom step pe etotal temp atoms vol press pxx pyy pzz lx ly lz xlo xhi f_cold_rescale f_hot_rescale

group ox type 2
6908 atoms in group ox
group hy type 1
13816 atoms in group hy
compute KE all ke/atom
variable TEMP atom c_KE*4186.8/(1.3806488*6.02214129)

compute cc1 all chunk/atom bin/1d x center 2 units box
#fix TPROFILE all ave/chunk 1 500 500 cc1 v_TEMP density/number file temp.dat
fix TPROFILEox ox ave/chunk 1 500 500 cc1 v_TEMP density/number file temp-ox.dat
fix TPROFILEhy hy ave/chunk 1 500 500 cc1 v_TEMP density/number file temp-hy.dat

compute orderparam ox orientorder/atom degrees 1 2 nnn 4 cutoff 3.5
compute cc2 ox chunk/atom bin/1d x center 2 units box
#fix ORDERPARAM all ave/chunk 1 500 500 cc2 c_orderparam[1] file order-param.dat
fix ORDERPARAM all ave/chunk 1 500 500 cc2 c_orderparam[1] file order-param.dat

restart 50000 config.restart

run 500000
PPPM initialization ...
  extracting TIP4P info from pair style
WARNING: Using 12-bit tables for long-range coulomb (../kspace.cpp:316)
  G vector (1/distance) = 0.345609
  grid = 405 48 48
  stencil order = 5
  estimated absolute RMS force accuracy = 0.000405795
  estimated relative force accuracy = 1.22204e-06
  using double precision FFTs
  3d grid and FFT values/proc = 67260 38880
Neighbor list info ...
  2 neighbor list requests
  update every 1 steps, delay 1 steps, check no
  max neighbors/atom: 2000, page size: 100000
  master list distance cutoff = 12.3154
  ghost atom cutoff = 12.3154
  binsize = 6.1577 -> bins = 71 4 4
Memory usage per processor = 12.7664 Mbytes
Step PotEng TotEng Temp Atoms Volume Press Pxx Pyy Pzz Lx Ly Lz Xlo Xhi cold_res hot_resc 
       0      -103712   -94886.101    214.32536    20724    226191.08     198.9543    131.59549    212.66661    252.60079    435.14585    23.481051    22.137221   0.46467499    435.61053            0            0 
     100    -103595.6   -94659.604    216.99892    20724    226552.41    21.140953   -73.696524    27.049297    110.07009    435.28539    23.496031    22.151344   0.39490732    435.68029     10.28597   -227.36044 
     200   -103628.56   -94644.245     218.1724    20724    226335.21   -18.134303    12.653844   -189.98872    122.93196    435.17094    23.487853    22.143634   0.45212925    435.62307    9.9523916   -247.02759 
     300   -103597.83   -94558.598    219.50597    20724    226367.79   -56.957558   -85.484638   -165.87188    80.483839    435.25551    23.487262    22.143076   0.40984677    435.66535    6.6618576   -327.48542 
     400   -103599.28   -94551.573    219.71188    20724    226402.39    52.827102     44.40034    -68.21942    182.30039    435.15821    23.491683    22.147245   0.45849588     435.6167     28.03406   -361.56379 
     500   -103561.28   -94512.196    219.74527    20724    226369.45   -2.2714353   -111.77864    9.3908039    95.573532    435.09263    23.491744    22.147302   0.49128319    435.58392    25.575435    -396.2023 
     600   -103429.25   -94426.212    218.62701    20724    226335.65    31.550248     177.4055    34.978963   -117.73372     435.2843    23.484818    22.140772   0.39544777    435.67975    13.311932   -472.66518 
     700   -103515.38   -94444.183    220.28228    20724    226382.02    56.355883    3.0669658     24.92775    141.07293    435.14035    23.491108    22.146703   0.46742578    435.60777    2.3981911   -445.99628 
     800   -103455.64   -94384.694    220.27609    20724    226274.89   -20.783581   -204.61827    130.12243    12.145089    435.01775    23.488858    22.144581   0.52872629    435.54647   -9.3960334    -493.7652 
     900    -103515.3   -94380.505    221.82658    20724    226456.95   -26.875452   -117.39783    328.11862   -291.34714    435.44228    23.486848    22.142687   0.31646075    435.75874    6.5726852   -509.38872 
    1000   -103394.51   -94332.053    220.06996    20724    226461.59    25.674311    53.521692    114.54513   -91.043887    435.23588    23.492658    22.148163   0.41966105    435.65554    24.155603   -578.67117 
    1100    -103455.7    -94297.04    222.40616    20724    226410.21    -61.65136   -115.00352    2.6055925   -72.556149    435.40606    23.485401    22.141322   0.33457195    435.74063    3.3025176   -592.79403 
    1200    -103363.4   -94316.069     219.7026    20724    226596.29   -71.969505   -39.292997   -282.07358    105.45806     435.3565    23.496388     22.15168   0.35934813    435.71585    13.223637   -578.29169 
    1300   -103375.22   -94262.068    221.30098    20724    226535.47    95.833068    259.39081   -18.445089    46.553482    435.30952    23.494502    22.149902   0.38284157    435.69236     7.154969   -635.59297 
    1400   -103431.88   -94245.223    223.08611    20724    226528.61     -119.683    -189.9151   -79.395229   -89.738682    435.34502    23.493188    22.148663   0.36509062    435.71011    2.6914258   -639.33799 
    1500   -103405.32   -94227.591     222.8693    20724    226552.23   -25.199077     -23.9916   -315.49113     263.8855    435.19038    23.498586    22.153753    0.4424076    435.63279  -0.96459042   -658.69037 
    1600    -103425.2   -94230.646    223.27787    20724    226758.58    57.578083    30.060815    67.673002    75.000434    435.51573    23.500503     22.15556    0.2797375    435.79546    17.701955   -674.09179 
    1700   -103387.67   -94231.971    222.33419    20724    226516.11    10.876596    29.593322    189.55903   -186.52256     435.3939    23.491221    22.146809   0.34064942    435.73455    11.118635   -671.35176 
    1800   -103405.41   -94248.754    222.35746    20724    226599.66   -35.865723    87.665926   -108.30958   -86.953517    435.48711    23.493039    22.148523   0.29404502    435.78115     11.49084   -651.54129 
    1900   -103306.09   -94190.242    221.36647    20724    226642.18    51.846938    59.306324   -88.220584    184.45507    435.56205    23.493221    22.148695   0.25657337    435.81863    25.026401   -728.27119 
    2000   -103500.86   -94216.575     225.4567    20724    226588.12   -63.334877   -59.106381   -63.815446   -67.082803    435.27697     23.49811    22.153304   0.39911628    435.67608    23.539527   -696.85657 
    2100    -103411.4   -94174.604    224.30346    20724    226621.73   -9.0761752    37.082119   -75.209037    10.898393    435.35988    23.497615    22.152837   0.35766192    435.71754    20.662762   -738.60978 
    2200   -103317.89   -94150.318    222.62257    20724    226529.07    22.835689    24.345154    115.43523   -71.273314    435.22292    23.496507    22.151793   0.42613973    435.64906    23.337796   -769.85535 
    2300   -103343.32   -94143.233    223.41206    20724    226693.28   -91.185811   -44.203095   -155.21776   -74.136579    435.45455    23.498769    22.153925   0.31032573    435.76487    15.899384   -760.74783 
    2400   -103388.21   -94182.227    223.55543    20724    226553.96    1.7875755    136.45615   -339.02442      207.931    435.48517    23.490722    22.146339   0.29501705    435.78018    33.803726   -749.53868 
    2500   -103303.01   -94135.232    222.62767    20724    226351.55    2.3749919   -57.384421    98.467561   -33.958164    435.05151    23.491925    22.147473   0.51184565    435.56335    14.054871   -783.12248 
    2600   -103350.47   -94091.341    224.84589    20724    226675.97   -39.680757   -96.958138   -25.933557    3.8494232    435.37965    23.499893    22.154985   0.34777367    435.72743    16.266681   -819.71647 
    2700   -103198.92   -94058.308    221.96776    20724    226684.83    35.936982    132.35463    80.170629   -104.71432    435.36175    23.500836    22.155873   0.35672342    435.71848   -9.8724785   -829.35851 
    2800   -103341.78   -94055.017    225.51702    20724    226701.12   -70.519098   -52.297995     23.03564   -182.29494    435.52233    23.497347    22.152584   0.27643283    435.79877    9.0964784    -847.3514 
    2900   -103332.93   -93996.823    226.71511    20724    226593.89   -6.3475607   -49.620002    306.64289   -276.06557    435.51262    23.492051    22.147592   0.28128852    435.79391   -5.5129745   -898.04925 
    3000   -103326.04   -93973.088    227.12421    20724     226517.7    11.744463    91.010361   -205.38861    149.61164    435.18572    23.496922    22.152184   0.44473848    435.63046     -22.8658   -910.19524 
    3100    -103147.3   -93946.771    223.42296    20724    226474.62   -28.116011   -76.752327    0.2557975   -7.8515043     435.1953    23.494429    22.149833   0.43994991    435.63525   -20.899157   -935.99544 
    3200   -103206.85    -93939.79    225.03847    20724    226692.99    84.036699    78.121089     393.8344   -219.84539    435.45836    23.498651    22.153814   0.30841781    435.76678    8.3180855   -974.18503 
    3300   -103146.94   -93926.009     223.9182    20724     226602.8    24.226628    64.845201   -73.165823    81.000508    435.37751    23.496158    22.151463   0.34884688    435.72635     17.70513   -996.65708 
    3400   -103262.72   -93935.281    226.50478    20724    226756.67    -34.08905   -146.29662   -96.427562    140.45703    435.53008    23.500017    22.155101   0.27256039    435.80264    17.634127   -981.76629 
    3500   -103129.77   -93943.906    223.06683    20724    226590.96    63.367322    48.353841    216.00945   -74.261322    435.32541     23.49695     22.15221   0.37489616     435.7003     24.63918    -990.2914 
    3600   -103234.91   -93911.202    226.41417    20724    226690.58    13.111137    1.1157221    239.37589    -201.1582    435.42633    23.499391    22.154512    0.3244346    435.75077    18.691861   -1013.8048 
    3700   -103181.39   -93904.053    225.28812    20724    226628.03    4.2683308   -42.897465   -68.240279    123.94274    435.29858    23.499597    22.154705   0.38831121    435.68689    30.439831   -1035.2765 
    3800   -103209.18   -93876.288    226.63706    20724    226734.23    -1.655568   -240.53305   -54.523847     290.0902    435.29404    23.505224    22.160011   0.39057887    435.68462    8.8667253   -1038.3944 
    3900   -103217.52   -93836.773    227.79932    20724    226740.85   -32.911701    5.8767064   -97.203466   -7.4083425    435.54053    23.498915    22.154063   0.26733708    435.80786   -24.859131   -1043.8563 
    4000   -103110.86   -93796.862    226.17827    20724    226767.87    111.10713    69.268418    399.99211   -135.93912    435.41842     23.50361    22.158489   0.32838958    435.74681   -13.389896   -1102.0751 
    4100   -103102.45   -93791.576     226.1024    20724    226602.21   -1.4724327     -123.997    33.817219    85.762481    435.29526    23.498347    22.153527   0.38997014    435.68523   -15.136884   -1105.4483 
    4200   -103094.21   -93799.423    225.71189    20724    226806.17    14.515734    82.317213   -63.269116    24.499105    435.42234    23.505489    22.160261   0.32643183    435.74877   -7.6033946   -1101.9667 
    4300   -103168.22   -93755.625    228.57256    20724    226714.93     11.39985   -96.495743    139.46927   -8.7739787    435.27677     23.50469    22.159507   0.39921743    435.67598   -23.685333   -1134.1222 
    4400   -103113.09   -93747.248    227.43738    20724    226595.31  -0.97795614   -48.147392    19.182391    26.031132    435.18426    23.500986    22.156015   0.44546917    435.62973   -20.143115   -1148.5337 
    4500   -103173.01   -93755.866    228.68319    20724    226581.17    65.336473    413.28271   -113.29723   -103.97606     435.3009    23.497104    22.152355   0.38715092    435.68805    12.109817   -1176.8744 
    4600      -103099   -93756.843    226.86216    20724    226492.71    8.9680325    64.874595    87.051869   -125.02237    435.49062    23.487399    22.143206   0.29229039    435.78291   -9.2438875   -1154.0618 
    4700   -103089.08   -93706.134    227.85266    20724    226790.32   -52.275335   -89.677648   -141.38375    74.235394    435.65998    23.498256    22.153442   0.20761058    435.86759  -0.19698788   -1205.1485 
    4800   -103067.38   -93635.459    229.04187    20724    226644.06   -11.680606   -75.397565   -23.456998    63.812744    435.27345    23.501106    22.156128   0.40087598    435.67432   -27.971331   -1253.4081 
    4900    -103083.6     -93666.4    228.68453    20724    226663.85    14.032479    155.07329    90.138677   -203.11453    435.50702    23.495828    22.151153   0.28408953    435.79111   -10.700978   -1241.8558 
    5000   -102991.76   -93652.772    226.78523    20724    226677.68   -69.618826    71.469211    68.422322   -348.74801    435.58267    23.494505    22.149905   0.24626747    435.82893    15.142363   -1277.3553 
    5100   -103034.99   -93636.658    228.22626    20724    226665.94     47.10555    65.445209   -40.674087    116.54553    435.32336    23.500893    22.155927    0.3759206    435.69928    19.923768   -1306.2699 
    5200   -103127.52    -93655.37    230.01873    20724    226686.83   -41.307701   -139.75326   -189.84195     205.6721    435.48782    23.497538    22.152764   0.29368996    435.78151    21.903049   -1286.8979 
    5300   -103047.02   -93608.859    229.19339    20724    226674.71   -5.1722618    32.464767   -200.43318    152.45163    435.19919      23.5047    22.159516    0.4380071    435.63719    16.434835    -1330.388 
    5400   -103089.06   -93634.068    229.60206    20724    226704.01   -45.291217    7.7507043   -152.68189    9.0575315    435.40703    23.500608    22.155659    0.3340868    435.74111    17.894909   -1304.0503 
    5500   -103045.75   -93636.337    228.49522    20724    226649.63     32.47794    150.25794    293.66013   -346.48425     435.3643    23.498942    22.154088   0.35544817    435.71975    26.679316   -1316.3888 
    5600   -103044.76   -93614.319    229.00608    20724    226548.79    85.364584    49.368636     329.6954   -122.97028    435.29904    23.495475     22.15082   0.38807939    435.68712    13.719379   -1332.6736 
    5700   -103074.74   -93625.265    229.46829    20724    226709.74    25.078856   -6.5848742   -102.29663    184.11807    435.47053    23.499191    22.154323   0.30233615    435.77286    38.737363   -1341.2397 
    5800   -103049.96   -93600.809     229.4604    20724    226795.01    13.574038    15.431636   -247.86261    273.15309    435.52515    23.502137      22.1571   0.27502579    435.80017    23.367654   -1346.5812 
    5900   -102926.53    -93601.92    226.43608    20724    226733.42    -23.96051   -10.435978    -77.87225    16.426697    435.32085    23.504458    22.159289   0.37717566    435.69802    28.765327   -1350.9868 
    6000   -102992.73   -93586.699    228.41328    20724    226823.47   -11.074103   -6.0299814   -114.65624    87.463913    435.48281    23.504754    22.159567   0.29619651      435.779    46.819553   -1384.0401 
    6100   -103030.78   -93571.064    229.71682    20724    226794.96    6.3180891    -152.3326    57.945112    113.34176    435.37989    23.506054    22.160793   0.34765359    435.72755    38.294176   -1391.8044 
    6200   -103076.76    -93588.65    230.40633    20724    226684.26     15.92947    -76.23102    179.14219   -55.122756    435.45263    23.498354    22.153534   0.31128719    435.76391    66.226001     -1407.22 
    6300   -103010.01   -93572.441    229.17904    20724    226588.75   -100.08257   -180.64079   -58.097121   -61.509808    435.18682    23.500577    22.155629   0.44418855    435.63101    48.751071   -1404.5829 
    6400    -103024.9   -93557.471    229.90408    20724    226600.16    9.3573407     109.3401    56.178123    -137.4462    435.45786    23.493854    22.149291   0.30866829    435.76653    52.432651   -1428.8598 
    6500   -103041.57    -93584.55    229.65141    20724    226627.96   -2.8959796   -48.320202    9.6330868    29.999176    435.54363    23.492981    22.148468   0.26578552    435.80941     75.64905   -1425.8338 
    6600   -103008.07   -93563.547    229.34803    20724    226743.85   -15.384763     19.00263    9.7484725   -74.905392    435.76307     23.49307    22.148552   0.15606631    435.91913    74.038407   -1443.9224 
    6700   -103018.81   -93537.501    230.24119    20724    226550.09   -25.193628    -1.238768    164.21594   -238.55806    435.40865    23.492585    22.148095   0.33327303    435.74193    74.891758   -1475.0882 
    6800   -102954.56   -93492.808    229.76626    20724    226871.45   -22.269741    51.826905    135.89418   -254.53031    435.70718    23.501186    22.156204   0.18400885    435.89119    78.782726   -1514.9279 
    6900   -103065.38   -93497.155    232.35176    20724    226587.09   -78.054636   -88.039591   -286.26842     140.1441    435.55787    23.490478    22.146109   0.25866632    435.81653    68.484816   -1508.5684 
    7000    -102907.7   -93495.881    228.55373    20724    226610.46    62.464558    123.07757    59.251115    5.0649932    435.39817    23.495998    22.151312   0.33851622    435.73668    69.667968   -1516.7446 
    7100    -102978.2   -93480.554    230.63802    20724    226692.31    8.6314893   -69.189216    88.190836    6.8928473    435.63646    23.493813    22.149252   0.21937174    435.85583    78.819894    -1537.562 
    7200    -102944.9   -93463.345    230.24726    20724    226631.97     26.20957    129.40659   -122.92752    72.149632     435.5384     23.49333    22.148797   0.26840174     435.8068    72.163872   -1551.6648 
    7300      -102959   -93462.073    230.62059    20724    226715.96    23.825044    40.102476   -94.393589    125.76624    435.59751    23.496088    22.151398   0.23884329    435.83636    61.553123   -1540.3822 
    7400   -102859.55    -93439.71    228.74849    20724    226627.41   -35.253089   -180.34398    70.558311    4.0263992    435.57686    23.492056    22.147597   0.24917167    435.82603    33.558157   -1534.6449 
    7500   -102917.55    -93438.27    230.19202    20724    226714.38    21.978125    120.40882     52.80521   -107.27966    435.71163    23.492929    22.148419   0.18178318    435.89342      46.4185   -1552.2182 
    7600   -102922.79    -93432.74    230.45352    20724    226658.23    11.990866    89.468352    32.970108   -86.465863    435.50765     23.49552    22.150862   0.28377614    435.79142    40.125703   -1553.3648 
    7700   -102987.99   -93354.678    233.93242    20724    226519.82    -24.34327   -41.569914    4.0881101   -35.548005    435.46421    23.489517    22.145203   0.30549679     435.7697     13.39747   -1606.5621 
    7800   -102921.28   -93379.804    231.70239    20724    226684.89   -23.577901    114.42168   -70.235155   -114.92023     435.6515    23.493022    22.148507   0.21185214    435.86335    34.750058   -1600.1178 
    7900   -102933.51    -93373.81    232.14493    20724    226635.38   -53.824551   -9.6219266   -235.75788     83.90615    435.46239    23.495557    22.150896   0.30640304     435.7688    53.148188   -1624.2376 
    8000   -102774.85   -93301.442    230.04932    20724    226760.96    10.136807    181.09179   -81.129267   -69.552106    435.50474    23.500923    22.155956   0.28523138    435.78997    47.706095   -1689.5095 
    8100   -102891.92   -93324.607    232.32979    20724    226797.83   -56.704595     111.7622   -141.83812   -140.03786    435.73362     23.49666    22.151937   0.17078954    435.90441    50.301323   -1669.6634 
    8200   -102845.85   -93288.639    232.08446    20724    226743.64    8.8216416    76.053424    84.702124   -134.29062    435.45268     23.50143    22.156434   0.31126164    435.76394    39.433936   -1697.7566 
    8300   -102837.68    -93329.95    230.88284    20724    226801.64     38.57996   -15.196179    33.917979    97.018081    435.40485    23.505727    22.160485   0.33517747    435.74002     59.99787   -1678.7811 
    8400   -102870.06   -93338.222    231.46826    20724    226523.11   -118.32821   -81.508253   -195.85954   -77.616852    435.41981    23.490885    22.146492    0.3276961     435.7475    58.503521   -1669.9144 
    8500   -102855.19   -93320.967    231.52608    20724    226711.03    18.951592    54.300444   -2.4273026    4.9816344    435.54707    23.497193    22.152439    0.2640659    435.81113    63.267694   -1692.5927 
    8600    -102836.1   -93329.579    230.85357    20724    226595.99    75.013769    196.70733     75.06211   -46.728134    435.37848    23.495779    22.151106   0.34835857    435.72684    72.671007   -1701.6452 
    8700   -102915.01   -93303.684    233.39854    20724    226800.98   -123.76457   -254.85584   -49.250845   -67.187015    435.64139     23.49931    22.154435   0.21690406     435.8583     85.33156   -1727.3336 
    8800   -102888.46   -93306.787    232.67848    20724    226706.52    41.680208   -47.342626    221.85199   -49.468741    435.50223    23.498169     22.15336    0.2864852    435.78871    99.626575   -1749.5236 
    8900      -102821   -93319.705    230.72665    20724    226833.01   -7.4028175    148.82723   -10.999472   -160.03621     435.7226    23.498779    22.153935   0.17630064     435.8989    84.165235   -1715.1455 
    9000   -102836.43   -93300.695    231.56302    20724    226629.82   -54.169537   -32.809952   -98.968232   -30.730426    435.44937     23.49562    22.150956   0.31291682    435.76228    78.237369   -1733.0741 
    9100   -102854.53   -93305.568    231.88408    20724    226654.03    19.957845    36.348634    97.486709   -73.961807     435.4526    23.496788    22.152057   0.31130129     435.7639    81.723183   -1735.7354 
    9200   -102868.86   -93284.422    232.74546    20724    226526.57    90.444517   -168.10048    247.73012     191.7039    435.52709    23.488171    22.143933   0.27405489    435.80115    56.171667   -1736.6877 
    9300    -102855.1   -93296.162    232.12645    20724    226432.52   -46.984488   -155.93235   -36.976956    51.955842    435.29554     23.48954    22.145224    0.3898292    435.68537    78.360806   -1745.5122 
    9400   -102828.33   -93299.823    231.38736    20724    226693.45    87.057738     342.5961   -195.58279     114.1599    435.53737    23.496544    22.151827   0.26891389    435.80629    65.298371   -1729.3454 
    9500   -102746.55   -93297.578    229.45602    20724    226642.17    37.124776    75.344274    -24.62168    60.651734    435.46697    23.495785    22.151112   0.30411335    435.77109    75.678341   -1741.5734 
    9600   -102812.23   -93284.529    231.36773    20724     226852.7   -19.200706   -291.89667      69.5074    164.78716     435.5787    23.503681    22.158556    0.2482478    435.82695    74.979912   -1748.1929 
    9700   -102814.68   -93261.889    231.97717    20724     226634.4     4.226458    114.52882     112.6223   -214.47175    435.47898    23.495059    22.150427   0.29811087    435.77709    87.018789   -1789.6703 
    9800   -102800.28   -93239.385    232.17398    20724     226666.4   -15.670493   -67.123116    126.36961   -106.25798     435.5655    23.494384    22.149791   0.25485076    435.82035    76.329083   -1801.4381 
    9900    -102913.9   -93246.654    234.75657    20724    226767.29   -46.866554    21.594137   -285.79739    123.60359    435.39911    23.504102    22.158952   0.33804399    435.73716    91.341751   -1808.0333 
   10000   -102815.23   -93241.955    232.47458    20724    226849.08    30.510974    96.247912   -104.11354    99.398549    435.27766    23.511619    22.166039   0.39876855    435.67643     95.46696   -1818.1264 
   10100   -102799.03   -93195.179     233.2171    20724    226582.13    -7.315097   -40.198698   -248.92046    267.17387    435.35185    23.495779    22.151106   0.36167415    435.71353    68.297997   -1845.1186 
   10200   -102760.02    -93183.29    232.55833    20724    226633.22     103.1623    152.10949    278.01967   -120.64228    435.14533    23.504003    22.158859    0.4649368    435.61026    64.668422   -1857.6654 
   10300   -102780.01   -93166.384    233.45438    20724    226742.77    13.860078   -2.0001383    25.192751    18.387622    435.38765     23.50314    22.158046   0.34377627    435.73142    73.346572    -1876.505 
   10400   -102752.41     -93165.3    232.81036    20724    226732.49    63.519428     193.9473    76.335267   -79.724285    435.57941    23.497433    22.152666   0.24789747     435.8273    74.956915   -1883.6175 
   10500   -102705.09   -93166.124    231.64145    20724    226600.65    23.547211    111.58109   -224.34271    183.40326    435.16545    23.501771    22.156755    0.4548742    435.62033    81.002738   -1889.1196 
   10600   -102773.81   -93181.502    232.93681    20724     226606.7    54.215772   -115.98844    107.54121    171.09454    435.28363    23.498894    22.154043   0.39578539    435.67941    81.967969   -1878.1713 
   10700   -102763.84   -93128.725    233.97624    20724    226663.16   -53.037799   -54.315821   -86.367523   -18.430054    435.34279    23.500225    22.155297   0.36620514    435.70899    68.462833   -1911.7683 
   10800   -102798.85   -93143.876    234.45849    20724    226703.61   -8.5891462   -155.72442    81.733557     48.22342    435.27638    23.504114    22.158964   0.39940988    435.67579    82.241305   -1913.6662 
   10900    -102681.6    -93087.68    232.97574    20724    226716.91    9.1246753   -75.288366    199.41189   -96.749494    435.23282    23.505979    22.160723    0.4211879    435.65401    58.305079   -1947.4476 
   11000   -102712.96   -93057.963    234.45913    20724    226827.77    12.401521   -14.174027   -46.223947    97.602537    435.23232    23.511739    22.166153   0.42143799    435.65376    64.971835   -1982.9689 
   11100   -102764.54   -93022.358    236.57618    20724    226743.99   -1.9362757   -194.21429    92.747388    95.658075    435.17078    23.509059    22.163626   0.45220946    435.62299    37.310022    -1992.374 
   11200   -102587.26   -93061.533    231.31981    20724    226540.98    84.468334    90.759846    149.44558    13.199578    435.25377    23.496292     22.15159   0.41071524    435.66448     57.71038   -1983.1991 
   11300   -102773.08   -93062.984    235.79692    20724    226628.04    43.895197    66.240403   -40.650789    106.09598    435.18769    23.502591    22.157528   0.44375654    435.63144    45.676084   -1965.9053 
   11400   -102656.69   -93016.349    234.10323    20724    226565.98   -29.221483    21.141016   -216.60457    107.79911    435.02163    23.503857    22.158722   0.52678368    435.54842    72.690314    -2039.449 
   11500    -102626.8   -93036.815    232.88036    20724    226571.47    52.820024    85.716458     -9.58701    82.330624    435.17844    23.499907    22.154998   0.44838152    435.62682    53.130712   -2004.7368 
   11600   -102644.37   -93031.247    233.44219    20724    226585.76    -16.78783    89.276845    30.436618   -170.07695    435.19803    23.500119    22.155198   0.43858477    435.63662    73.678276   -2028.2602 
   11700   -102638.95   -92995.718    234.17332    20724    226575.42    27.152349    88.485983    6.5196131    -13.54855    435.21924     23.49901    22.154152   0.42797787    435.64722    66.045545   -2061.1869 
   11800   -102533.64   -92957.606    232.54161    20724    226693.97    58.109707    112.10173   -52.402252    114.62964    435.42028     23.49973    22.154831   0.32745906    435.74774    51.803906    -2082.945 
   11900   -102610.59   -92973.932     234.0138    20724     226799.4     7.094659   -94.515732    65.507344    50.292365    435.43989    23.504665    22.159483   0.31765412    435.75755    78.769918   -2088.7732 
   12000   -102638.08   -92996.162    234.14148    20724    226774.38    25.645483    35.561887   -24.208297     65.58286    435.66309    23.497347    22.152584   0.20605731    435.86914    75.300776   -2065.3054 
   12100   -102635.74   -92976.763    234.55571    20724    226721.81     22.48218    99.860133    115.48881    -147.9024    435.20091    23.507095    22.161775   0.43714489    435.63806    85.554371   -2098.2247 
   12200   -102624.54   -92900.084    236.14582    20724     226896.4   -17.492349    85.428497    48.602295   -186.50784    435.40785    23.510556    22.165037   0.33367656    435.74152    84.262676   -2167.4449 
   12300   -102597.66   -92963.287    233.95815    20724    226621.22   -36.908729    142.51359   -198.39369   -54.846084    435.23402    23.500986    22.156015   0.42058954    435.65461    92.372463   -2121.5328 
   12400   -102605.61   -92981.684    233.70442    20724    226761.41    51.354001    122.29165   -123.02724     154.7976    435.40056    23.503758    22.158628    0.3373184    435.73788    98.176364   -2109.8564 
   12500   -102550.99   -92917.442    233.93822    20724    226815.33   -55.748772    -55.85295   -54.843561   -56.549805    435.48224    23.504347    22.159184    0.2964803    435.77872    93.358897   -2163.7395 
   12600    -102535.7   -92929.514    233.27368    20724    226607.91   -26.754116   -136.18283   -70.994919     126.9154    435.38137    23.496319    22.151615   0.34691274    435.72829    80.594483   -2146.5012 
   12700   -102556.19   -92928.235    233.80224    20724    226710.03   -34.240329   -257.47427    115.89751    38.855775    435.32598    23.503107    22.158015   0.37460835    435.70059    90.197248    -2155.864 
   12800    -102546.8   -92880.552    234.73234    20724     226876.6    30.652258   -26.888481   -45.398828    164.24408    435.58706    23.504693     22.15951   0.24406779    435.83113    73.802702   -2188.1929 
   12900   -102485.28   -92858.547    233.77272    20724    226928.64    59.450979     54.37272    67.062265    56.917952    435.41782    23.511957    22.166358   0.32869033    435.74651    67.397125   -2203.6945 
   13000   -102538.18   -92852.079    235.21432    20724    226798.14   -47.855461   -82.283575    26.250593   -87.533402    435.39406    23.505837    22.160588   0.34057046    435.73463    66.478256   -2208.8506 
   13100   -102570.33   -92813.579    236.92987    20724    226837.76   -65.126574   -124.56568   -316.46247    245.64843    435.42827    23.506966    22.161653   0.32346559    435.75173    73.765552   -2252.6508 
   13200   -102530.44   -92792.958    236.46206    20724    227009.27   -40.124726   -30.302974    100.33127   -190.40247    435.50382    23.513811    22.168106    0.2856908    435.78951     78.15823   -2273.5191 
   13300    -102465.6   -92778.194    235.24592    20724    226936.81    9.2295288   -68.373768    37.507495    58.554859    435.32179    23.514973    22.169202   0.37670515    435.69849    69.473821   -2285.3525 
   13400   -102455.73    -92789.19    234.73944    20724    226712.47   -16.102073   -155.52618   -59.812502    167.03246    435.35329    23.502497     22.15744   0.36095416    435.71425    75.034541    -2286.501 
   13500   -102647.96   -92806.457    238.98801    20724    227024.28   -42.712542   -56.956307   -192.69961    121.51829    435.48432    23.515115    22.169336   0.29544177    435.77976    90.272171   -2278.4311 
   13600   -102452.22   -92781.067    234.85143    20724    226849.89     45.23804    56.738859   -39.273387    118.24865    435.42802    23.507601    22.162251   0.32358775    435.75161    88.331114   -2309.2689 
   13700   -102560.68   -92772.704    237.68829    20724    226758.09     -5.69667    50.599648   -195.95009    128.26043    435.44573    23.502366    22.157317   0.31473416    435.76047    86.463287   -2318.1681 
   13800   -102484.31   -92848.139    234.00188    20724    226865.29    19.135026    -171.5457   -17.211316     246.1621    435.42986     23.50835    22.162957   0.32267124    435.75253     95.58545   -2251.3995 
   13900   -102527.82   -92811.102    235.95783    20724    226794.15    46.688499   -49.066784     82.78482    106.34746    435.28208    23.508653    22.163243    0.3965582    435.67864     96.97217   -2292.8691 
   14000   -102545.34   -92836.045    235.77755    20724    226743.18   0.81926025   -128.94448    43.139414    88.262848    435.56041      23.4985    22.153671   0.25739599     435.8178    94.802866   -2265.8972 
   14100   -102539.71   -92807.543    236.33288    20724    226790.44    16.479983    9.0596113    9.1238952    31.256442    435.60039     23.49987    22.154963   0.23740631    435.83779    78.788873   -2280.7929 
   14200    -102530.9   -92732.966    237.93003    20724     226754.4   -63.618049   -51.050677   -192.73246    52.928987    435.31698     23.50565    22.160413   0.37910768    435.69609    71.988496    -2345.699 
   14300   -102514.49   -92713.097    238.01408    20724    226841.85   -1.5361964    -56.85559    150.55749    -98.31049    435.27084    23.511429     22.16586    0.4021806    435.67302     78.02603   -2373.6207 
   14400   -102408.15   -92730.184    235.01676    20724    226830.07    14.694198   -58.562405    65.243563    37.401437    435.37597    23.507979    22.162608   0.34961356    435.72559     95.20837   -2375.7904 
   14500   -102336.22   -92675.492     234.5982    20724    226994.06    71.993864    72.002802     39.84439     104.1344    435.71407     23.50735    22.162015   0.18056473    435.89464    59.289448    -2392.974 
   14600   -102375.48   -92646.477    236.25603    20724    226881.93    45.470202    147.74843    -18.40456    7.0667382    435.54119    23.506207    22.160937   0.26700571    435.80819    65.410894   -2431.7822 
   14700   -102361.45   -92642.275    236.01741    20724    226830.62   -52.001585   -103.09864    242.43803   -295.34414    435.56684    23.502857    22.157779   0.25418108    435.82102    64.706609   -2432.9884 
   14800   -102402.81   -92655.971    236.68918    20724    226986.46   -22.837193    63.005428   -137.35283    5.8358184    435.71013    23.507063    22.161744   0.18253447    435.89267    83.265194    -2435.642 
   14900   -102363.65   -92616.024    236.70831    20724    226763.45     7.683572   -34.812862   -100.94437    158.80794    435.43418    23.502956    22.157872   0.32050889    435.75469    63.731908    -2465.297 
   15000   -102312.71   -92604.499    235.75123    20724    227040.83   -81.917369    -231.3793   -83.650941    69.278131    435.64295     23.51169    22.166107   0.21612259    435.85908    60.533183   -2461.8614 
   15100   -102367.27   -92617.586    236.75841    20724    226975.07    14.277052   -140.26336    414.01638   -230.92186    435.81815    23.503559    22.158441   0.12852636    435.94667    62.828835   -2461.5683 
   15200   -102396.71   -92606.239    237.74873    20724    226919.67    89.206178     177.4643    161.49283    -71.33859    435.48196     23.50976    22.164287   0.29662079    435.77858    47.417631   -2463.7871 
   15300   -102443.85   -92596.392     239.1326    20724    227022.41   -42.769072   -78.373323   -168.28812    118.35422     435.9088    23.503566    22.158448  0.083197756      435.992     69.07866   -2487.4099 
   15400    -102348.8   -92582.737    237.15619    20724    227054.09   -10.656475     160.2662   -155.47741   -36.758211    435.87104    23.506224    22.160953   0.10207801    435.97312     53.55095   -2488.4662 
   15500    -102269.1    -92571.39    235.49624    20724    226863.57    56.950591   -84.619871    56.557246     198.9144    435.72582    23.500276    22.155345   0.17469206    435.90051    73.942415   -2528.4518 
   15600   -102312.22   -92537.018    237.37813    20724    226793.06   -25.650597   -212.63834    33.622975    102.06358    435.68305    23.497776    22.152989   0.19607697    435.87912    50.734917   -2538.2234 
   15700   -102321.28    -92541.91    237.47913    20724    226964.29   -55.112448    60.753455   -94.505745   -131.58505    435.68936    23.506475     22.16119   0.19291865    435.88228    53.646673   -2531.9234 
   15800   -102337.35   -92557.389    237.49372    20724    226788.89   -40.966549    -185.4408    68.721102   -6.1799533     435.5617    23.500833    22.155871   0.25675215    435.81845    68.048543   -2537.5279 
   15900   -102354.08   -92509.411    239.06494    20724    226819.11   -69.253793    -56.66408    177.24705   -328.34434    435.55517    23.502575    22.157513   0.26001483    435.81519    40.476112   -2556.9132 
   16000   -102324.06   -92536.262    237.68383    20724    226706.68   -16.827563     117.4388   -142.54227   -25.379218    435.55981    23.496624    22.151903    0.2576959     435.8175    58.004914   -2552.5741 
   16100    -102263.7   -92552.815    235.81614    20724    226737.99     6.731635    33.541413   -178.81817    165.47167    435.33125    23.504415    22.159248   0.37197396    435.70323    58.574136   -2539.1677 
   16200   -102295.01   -92546.162    236.73807    20724    226587.16   -29.781585   -25.501045   -178.65171      114.808    435.42118    23.494169    22.149588   0.32700779    435.74819    56.548837   -2547.1793 
   16300   -102447.14   -92547.187    240.40736    20724    226634.01   -112.58822   -51.582798   -41.079255   -245.10262    435.58195    23.492261    22.147789   0.24662455    435.82858    75.274033   -2560.6593 
   16400   -102317.88    -92480.56    238.88639    20724    226609.67    74.424501    103.54496    287.97967   -168.25113    435.50236    23.493146    22.148624    0.2864206    435.78878    44.011447   -2606.5599 
   16500   -102310.72   -92495.407     238.3521    20724    226531.25     46.56662   -11.583363     68.96929    82.313934    435.40577    23.491686    22.147247   0.33471684    435.74048    69.483268   -2618.7979 
   16600    -102287.2    -92464.27    238.53698    20724    226436.85   -56.727986   -63.091129   -126.43782    19.344995    435.22501    23.491668     22.14723   0.42509661     435.6501    52.459019   -2631.7524 
   16700   -102279.96   -92478.416     238.0178    20724    226626.52   -105.82582    -183.4873    4.6179656   -138.60814     435.3132    23.499123    22.154259   0.38099783     435.6942    62.778078   -2622.3727 
   16800   -102227.14   -92467.618    236.99728    20724    226814.01   0.76587332   -225.32458    135.72006    91.902139    435.45973    23.504886    22.159692   0.30773415    435.76747    66.058534   -2635.5662 
   16900   -102240.24   -92495.319     236.6428    20724    226513.93     62.07477    48.641094    19.145583    118.43763     434.9226    23.503833    22.158699   0.57629927     435.4989    69.443697   -2627.1176 
   17000   -102243.64   -92449.512    237.83775    20724    226733.42    55.038032   -53.288957    198.51586    19.887192    435.12391    23.509777    22.164303   0.47564687    435.59955    64.279972   -2661.0953 
   17100   -102309.83   -92452.091    239.38245    20724    226721.37    9.1867069   -24.578151    -11.62024    63.758511    435.26849    23.505248    22.160033   0.40335611    435.67184    46.148419    -2639.027 
   17200   -102234.84   -92423.285    238.26073    20724    227003.46    41.645477    145.42977     130.7866   -151.27994    435.42557    23.515623    22.169814   0.32481394    435.75039     37.37337   -2654.4294 
   17300   -102253.61   -92357.943    240.30336    20724    226841.69   -102.65875   -262.20345    -62.16856    16.395759    435.50031    23.505225    22.160012   0.28744581    435.78775    20.648528   -2699.6963 
   17400   -102217.51   -92352.246    239.56518    20724    226888.82    46.188713    57.216225    163.30348   -81.953572    435.46245    23.508689    22.163277   0.30637532    435.76882    20.841696   -2714.2097 
   17500   -102155.42     -92307.4    239.14632    20724    226700.56   -23.054794    127.59989    95.391324    -292.1556    435.24729    23.504741    22.159556   0.41395698    435.66124    22.291355   -2762.9745 
   17600   -102148.62   -92336.163    238.28265    20724    226847.45    28.141152    138.22019   -25.360538   -28.436199    435.26967     23.51175    22.166163   0.40276342    435.67244    30.444836   -2742.2358 
   17700   -102179.81    -92324.93    239.31296    20724     226889.1   -28.662508   -189.80006   -94.017484    197.83002    435.34574    23.511854    22.166261   0.36473154    435.71047    21.753859   -2743.3618 
   17800    -102232.9    -92346.93    240.06788    20724    226745.17   -21.665619    18.630631   -142.98666    59.359167    435.17591    23.508982    22.163553   0.44964655    435.62555    22.909788    -2729.009 
   17900   -102176.99   -92291.567    240.05466    20724    226925.75    13.344087   -99.959099    107.61768    32.373675    435.67092    23.504976    22.159777    0.2021386    435.87306    29.721845   -2787.9221 
   18000   -102078.97   -92276.738     238.0344    20724    226757.33   -43.987556   -29.911188   -142.49767    40.446184    435.28161    23.506757    22.161456   0.39679494    435.67841     28.89845   -2802.8652 
   18100   -102069.76   -92257.731    238.27226    20724    226850.53    58.236169    99.129579   -60.912655    136.49158    435.28562    23.511479    22.165908    0.3947893    435.68041     12.35386   -2808.4176 
   18200   -102110.72   -92251.843       239.41    20724    226739.26   -12.648766    89.381687   -14.676423   -112.65156    435.26458     23.50628    22.161007   0.40531002    435.66989     24.12567   -2827.8495 
   18300   -102023.65   -92223.113    237.99336    20724    226569.87    25.549011   -1.9915997    9.4148169    69.223814    435.08517    23.502342    22.157294    0.4950135    435.58019    6.4873384   -2844.0341 
   18400   -102129.79   -92223.549    240.56007    20724    226711.47   -83.059735    87.613758   -201.28753   -135.50543    435.20869    23.506349    22.161071   0.43325549    435.64194    11.885871   -2841.9563 
   18500   -102145.38   -92272.705    239.74511    20724    226598.69   -21.016362   -67.887108   -191.27077    196.10879    434.95162    23.507445    22.162105   0.56179051    435.51341    15.563757   -2804.8222 
   18600   -102160.05   -92292.091    239.63063    20724    226661.82     16.09798   -35.522324    124.52515   -40.708888    435.17894    23.504578    22.159402   0.44812978    435.62707    22.950696   -2794.0145 
   18700   -102070.22   -92246.641    238.55278    20724    226500.28   0.84934547   -37.340097    177.05171   -137.16358    435.13375    23.497421    22.152654   0.47072461    435.60448    6.8244536   -2828.1335 
   18800   -102146.49   -92248.901    240.35004    20724    226524.49   -108.67985    14.354705   -194.30783   -146.08642    435.07139    23.500361    22.155426    0.5019047     435.5733    25.624354   -2841.4343 
   18900   -102150.95   -92236.344    240.76332    20724    226522.11    23.867731    95.086403   -54.525391     31.04218    435.03804    23.501138    22.156159   0.51858047    435.55662    7.4463026   -2844.4052 
   19000   -102101.26   -92222.472    239.89353    20724    226518.28    12.199458   -73.247565    135.20049   -25.354554    435.06385    23.500243    22.155314   0.50567426    435.56953    4.5996475   -2854.6753 
   19100    -102052.2   -92219.225    238.78104    20724    226406.32   -34.822126   -26.538157   -82.979523    5.0513024    434.87633    23.499499    22.154613   0.59943575    435.47576    5.4270008   -2860.6781 
   19200   -102019.18   -92182.916    238.86074    20724    226360.05    3.4679636   -95.651491    103.20356    2.8518264    434.94329    23.495289    22.150644   0.56595356    435.50925    1.5958223   -2896.0788 
   19300      -101998   -92149.112     239.1673    20724    226463.42   -12.621775    74.912477    -248.7414     135.9636    434.80531    23.504381    22.159216   0.63494323    435.44026   -26.926349   -2900.1266 
   19400   -102038.55   -92141.175     240.3449    20724    226387.54    46.465749    106.63317   -192.80886    225.57294    434.86931    23.498714    22.153873   0.60294453    435.47226   -3.0754089   -2936.3502 
   19500    -101971.9   -92117.428    239.30301    20724    226432.45    81.042175   -58.107924    149.76221    151.47224     434.8974    23.500286    22.155355   0.58890091     435.4863   -17.803053   -2945.5388 
   19600   -102022.26   -92145.069    239.85473    20724     226343.4    46.306369    38.852621    200.67658    -100.6101    434.74295    23.499838    22.154933   0.66612725    435.40907   -17.158094   -2922.2138 
   19700    -101972.7    -92086.33    240.07754    20724    226438.42    3.6713287    4.9159012     -179.194    185.29208     435.0388    23.496776    22.152046   0.51820064      435.557   -31.480504   -2961.0907 
   19800   -101997.45   -92120.683    239.84435    20724    226525.73    72.904522    205.03455   -104.49049     118.1695     434.9678    23.503224    22.158125   0.55370232     435.5215   -7.2752267   -2953.7915 
   19900   -101890.49   -92043.586    239.11931    20724    226427.39    36.899801    60.372208    294.55568   -244.22849    435.06702    23.495442    22.150788   0.50408846    435.57111   -22.726159   -3017.8057 
   20000    -101882.3   -92055.913    238.62111    20724    226549.17    -17.24668   -1.8400591   -49.210218   -0.6897631    434.92299    23.505651    22.160413   0.57610553    435.49909   -4.5518461   -3018.2811 
   20100   -101884.28   -92041.032    239.03041    20724    226358.32    1.2021874   -77.144488    149.18815   -68.437097    434.81289    23.498722     22.15388   0.63115322    435.44405    6.7665395   -3050.5062 
   20200   -101863.98   -92004.531    239.42375    20724    226471.62   -64.955785   -75.639528   -24.600189   -94.627637    435.06309    23.497843    22.153052   0.50605626    435.56914  -0.69119305    -3073.281 
   20300   -101930.29   -92049.338    239.94613    20724    226579.67    14.740219    85.982679   -322.26522     280.5032     434.9558    23.506346    22.161068   0.55970111     435.5155     13.23539   -3046.3485 
   20400   -101955.55   -92029.331    241.04529    20724    226614.92   -53.387093   -114.73686   -53.132142    7.7077184    435.20566    23.501425    22.156429   0.43477026    435.64043  -0.28066642   -3050.3062 
   20500   -101959.84   -92038.128    240.93583    20724    226583.27    94.924804   -6.6219961    338.04094   -46.644526    435.25615    23.498421    22.153597   0.40952339    435.66568   -2.6198537   -3046.8285 
   20600   -101767.11   -91991.116    237.39734    20724    226493.39   -4.2644046   -110.87077    118.35079   -20.273229     434.7812    23.506589    22.161297   0.64700022     435.4282   0.31064988   -3094.7182 
   20700   -101804.81   -91962.532    239.00689    20724    226808.99   -46.652897   -65.478499   -14.478098   -60.002095    435.18448    23.512058    22.166454   0.44535844    435.62984    3.0635124   -3115.9794 
   20800   -101884.89   -91996.791    240.11955    20724    226473.86   -18.007379   -137.58946   -147.64522    231.21255    435.07514    23.497633    22.152854   0.50002845    435.57517   0.74018193   -3093.5588 
   20900   -101917.99   -92006.394    240.69025    20724    226563.24    67.715027   -135.83813   -71.763066    410.74627    434.93671    23.506009    22.160751    0.5692444    435.50596    30.522448   -3116.6723 
   21000   -101950.32   -91972.002    242.31046    20724     226514.5    12.651276    97.098535    19.389014    -78.53372     434.9468    23.503208     22.15811   0.56419955      435.511    10.422942   -3130.6506 
   21100   -101917.51    -92001.42    240.79923    20724    226582.36    122.16882    234.78561   -58.780107    190.50095    435.14142    23.501471    22.156473   0.46689036    435.60831    17.513531   -3112.8573 
   21200   -101931.93   -91996.336    241.27305    20724    226580.61   -69.375583   -25.471789   -54.418048   -128.23691    435.20881    23.499561    22.154672   0.43319441    435.64201    33.820808   -3125.7861 
   21300   -101804.58   -91960.184     239.0584    20724       226591   -47.759182   -53.575682    100.94631   -190.64817    435.05432    23.504272    22.159113   0.51043976    435.56476    20.158015    -3149.104 
   21400   -102008.52   -91959.414    244.02955    20724    226640.46   -30.363397    19.143183   -12.419539   -97.813836    435.00774    23.508095    22.162718    0.5337287    435.54147    35.001869   -3167.3182 
   21500   -101876.49   -91955.087    240.92828    20724    226541.13    10.517706    291.45724   -267.95585     8.051731    435.07804    23.501045    22.156071   0.49858131    435.57662    29.868018   -3173.6286 
   21600   -101840.09   -91938.317    240.45167    20724     226413.5   -36.426107    21.516603   -160.34829    29.553366    434.95508    23.497744    22.152959   0.56006005    435.51514    53.149008   -3213.3071 
   21700   -101863.33   -91946.561    240.81579    20724    226468.33   -35.750799    60.107022    -63.12116   -104.23826    434.77604    23.505427    22.160202   0.64958234    435.42562    41.352888    -3194.692 
   21800    -101784.3   -91927.079    239.36983    20724    226486.27    1.8439806   -283.13355    -64.37698    353.04247    434.68316     23.50887    22.163448   0.69602033    435.37918    33.275195   -3206.3617 
   21900   -101878.59   -91954.663    240.98959    20724    226380.79   -84.255717   -58.698982    100.62929   -294.69746    434.66006    23.504019    22.158875    0.7075677    435.36763    73.369167   -3220.7873 
   22000   -101881.33   -91920.536    241.88495    20724    226315.18     25.51789    173.86636    43.767784   -141.08047    434.53481       23.504    22.158856   0.77019402    435.30501    53.751885   -3241.9624 
   22100   -101837.75   -91911.357    241.04941    20724    226302.85   -52.046516   -168.61729    -159.7924    172.27014    434.59261    23.501797    22.156779   0.74129686     435.3339    28.010132   -3223.3163 
   22200    -101888.1   -91906.597    242.38771    20724    226274.73    25.067662    163.34224   -181.32317    93.183915    434.34642    23.506995    22.161681   0.86438936    435.21081    16.588352   -3223.0536 
   22300   -101801.16    -91904.61    240.32477    20724    226192.68    115.48313    78.259845   -373.98652    642.17606    434.27795    23.504585    22.159408   0.89862274    435.17658    7.2825027   -3222.5643 
   22400   -101786.38   -91877.069    240.63477    20724    226223.62   -57.348815   -134.21613    -15.85455   -21.975767    434.50422    23.500072    22.155153   0.78548866    435.28971    3.7414096   -3239.0213 
   22500   -101805.48   -91866.664     241.3513    20724    226292.81   -7.6438367    99.458772     -83.2969   -39.093382    434.42531      23.5058    22.160554   0.82494468    435.25026    20.955034   -3267.9499 
   22600   -101740.28   -91808.344     241.1842    20724    226329.65   -45.861329   -66.645868   -70.303214  -0.63490354      434.483    23.506152    22.160886   0.79609782     435.2791    8.9175153   -3311.9952 
   22700   -101726.75    -91808.91    240.84178    20724    226210.64    76.142062   -23.196722   -3.7694599    255.39237    434.29505    23.505056    22.159852   0.89007676    435.18512   -4.6606692   -3309.4507 
   22800   -101728.87   -91755.394    242.19298    20724    226450.75    26.631818    135.16149    102.38702   -157.65306    434.40819    23.514464    22.168722   0.83350386     435.2417   -10.216992   -3346.9905 
   22900   -101731.43   -91737.858    242.68098    20724    226275.49    63.373999    -25.67069    11.396727    204.39596    434.43767    23.504566     22.15939   0.81876562    435.25643    18.805245    -3404.318 
   23000   -101654.32   -91717.228    241.30933    20724    226454.01    -42.79706    -166.8655   -221.33299    259.80731    434.44601    23.513611    22.167917   0.81459593     435.2606    13.916986   -3409.3212 
   23100   -101751.75   -91701.763    244.05093    20724    226453.52    -50.92634   -32.443515   -201.66874    81.333238    434.72572    23.506019     22.16076   0.67473818    435.40046   -6.8392267   -3406.7224 
   23200   -101699.21   -91713.384    242.49278    20724    226478.51   -50.025897   -250.21704    77.824137    22.315213    434.71865    23.507507    22.162163   0.67827316    435.39693   0.27681981   -3403.2164 
   23300   -101735.69   -91721.597    243.17926    20724    226479.51   -19.049451    85.227682    51.193403   -193.56944    434.67031    23.508866    22.163444   0.70244728    435.37275    12.575107   -3409.0724 
   23400   -101580.07   -91675.193    240.52712    20724    226391.17    29.831282    143.83867   -16.541251   -37.803576    434.58642    23.506549     22.16126   0.74439111    435.33081   -18.426832   -3428.6389 
   23500   -101644.36   -91657.558    242.51646    20724    226460.78    17.095371    292.69148   -111.03502   -130.37034    434.73727    23.506084    22.160821    0.6689657    435.40623   -6.2871548   -3457.5395 
   23600   -101603.62   -91625.833    242.29753    20724     226294.6   -34.373533    6.9501091   -102.92187   -7.1488386     434.5669    23.502063     22.15703   0.75415064    435.32105   -4.5448277   -3494.8447 
   23700   -101595.24   -91626.369    242.08111    20724    226388.09    59.714876   -80.758761    278.45429   -18.550905    434.70256    23.503249    22.158149   0.68631812    435.38888    10.826628    -3512.198 
   23800   -101573.16   -91663.493    240.64338    20724    226244.17    -5.473163    36.098229    216.76593   -269.28365    434.43708    23.502955    22.157872   0.81906136    435.25614    23.138512   -3487.6921 
   23900   -101715.64   -91582.254    246.07608    20724    226405.17    9.2260182   -11.243708    207.62366   -168.70189    434.50029    23.509606    22.164142   0.78745609    435.28774   -2.7547372   -3543.4215 
   24000   -101685.52   -91556.266    245.97581    20724    226243.86   -101.14013    -111.2666   -33.878769   -158.27501    434.43958    23.502871    22.157793   0.81780873    435.25739   -2.9358921   -3568.4439 
   24100   -101552.15   -91566.347    242.49219    20724    226298.12     111.4777    117.11686   -125.29789    342.61412    434.46101     23.50511    22.159903   0.80709631     435.2681    2.2415765   -3571.1289 
   24200   -101564.32    -91562.03    242.89264    20724    226096.39   -44.304482   -218.07131    -185.0773    270.23516    434.43787    23.495257    22.150614   0.81866512    435.25653    6.3303517   -3582.0601 
   24300   -101483.73   -91499.066    242.46445    20724    226515.97    79.682925   -7.8703061     104.8254    142.09368    434.49519    23.515496    22.169695   0.79000467     435.2852    3.7842277   -3636.4951 
   24400   -101522.95   -91493.916    243.54207    20724    226298.09    11.889884   -76.064739    73.461723    38.272666    434.35646    23.507937    22.162568   0.85936818    435.21583   -5.3424113   -3636.5797 
   24500   -101508.64   -91536.833    242.15227    20724    226183.75     59.30455     71.88089    129.46104   -23.428279    434.44376    23.499636    22.154742   0.81571927    435.25948   -12.334527   -3593.3641 
   24600   -101586.42   -91560.132    243.47523    20724    226086.52    14.850802   -72.775853     298.4858   -181.15754    434.42594    23.495066    22.150434   0.82462839    435.25057      10.7602    -3595.652 
   24700   -101551.66   -91545.109    242.99593    20724    226253.36     65.55493   -39.272191   -149.67539    385.61237    434.08743    23.512896    22.167244   0.99388713    435.08131   -9.9893989   -3586.7861 
   24800    -101691.7     -91517.4    247.06969    20724    226293.78   -42.887725   -107.70557   -95.574196    74.616594    434.12453    23.513992    22.168276   0.97533352    435.09987   -14.784987   -3607.4976 
   24900   -101573.38   -91557.814    243.21506    20724    226146.25    10.164531    2.0646089   -41.992449    70.421432    434.07962    23.507542    22.162196   0.99778754    435.07741   -30.226829   -3558.1652 
   25000   -101557.55    -91574.69    242.42079    20724    226155.18   -1.5523181   -142.86826   -18.851602    157.06291    433.89743     23.51294    22.167285    1.0888858    434.98631   -19.243838   -3551.3047 
   25100   -101661.31   -91537.694    245.83893    20724    226155.74    2.6680914    51.580446   -178.15451    134.57834    433.58879    23.521337    22.175201    1.2432053    434.83199   -23.670525   -3586.7066 
   25200   -101489.78   -91484.655    242.96154    20724    226140.62    56.747238   -56.671761    286.84002   -59.926548    433.70064    23.517517      22.1716    1.1872809    434.88792   -34.241908    -3633.253 
   25300   -101528.46   -91464.314    244.39461    20724    226126.45   -39.313787    57.683551    108.04399   -283.66891    433.88361    23.511821     22.16623    1.0957931    434.97941   -29.553828    -3654.264 
   25400   -101499.28   -91450.283     244.0268    20724     226132.6   -22.513798    -189.6373    16.064904    106.03101    433.84428    23.513207    22.167537     1.115459    434.95974   -27.213473   -3672.4879 
   25500   -101452.46   -91470.794    242.39175    20724    225975.65   -25.939977   -116.06475    32.776871    5.4679458     433.9616    23.501868    22.156847    1.0568003     435.0184   -25.818068   -3657.7704 
   25600   -101502.47   -91480.769    243.36387    20724    226042.27    39.785229    128.60607    38.795704   -48.046082    433.78656    23.510074    22.164583    1.1443183    434.93088   -28.273034   -3648.4878 
   25700   -101461.72   -91409.058     244.1158    20724    226297.71    77.797018   -72.424648    109.26114    196.55457    433.92788    23.519523    22.173492    1.0736591    435.00154   -58.404036   -3684.6036 
   25800   -101369.34   -91435.691    241.22576    20724    226032.42    24.829281   -62.261433   -88.629304    225.37858    433.99752    23.503847    22.158713    1.0388386    435.03636   -47.418193   -3674.2239 
   25900   -101541.61   -91395.872    246.37597    20724    226224.74   -42.406944   -25.177137    -132.2423    30.198604    434.21125    23.508056    22.162681    0.9319732    435.14323   -51.305891   -3704.9291 
   26000   -101466.93   -91394.108    244.60525    20724    226186.81    -86.11014   -129.64304   -37.482005   -91.205379    434.11513    23.508688    22.163276   0.98003423    435.09517   -58.934225   -3698.4376 
   26100   -101492.91   -91432.412     244.3061    20724    226116.59    2.2978555    33.702675    179.55623   -206.36534    433.99123    23.508393    22.162999    1.0419858    435.03321   -37.764088   -3689.3173 
   26200   -101448.28   -91392.532     244.1908    20724    226238.13     37.71437    148.23113    -45.81143    10.723415    434.07964    23.512316    22.166697   0.99777837    435.07742   -29.926499   -3736.6993 
   26300   -101447.55   -91415.886     243.6059    20724    226278.35    -6.747086   -61.941466   -107.15064    148.85085    434.08595    23.514235    22.168506   0.99462591    435.08057   -30.192974    -3713.689 
   26400   -101505.91   -91390.939    245.62896    20724    226200.61   -25.936638   -69.666251   -63.180569    55.036905    434.13373    23.508901    22.163478   0.97073677    435.10446   -30.683911    -3741.237 
   26500   -101422.92    -91333.46    245.00932    20724    226407.13   -43.503786   -129.81064   -129.27145    128.57073    434.36613    23.513338    22.167661   0.85453585    435.22066   -45.507878   -3777.2292 
   26600   -101364.58   -91373.693    242.61566    20724    226286.04    101.07826    63.516404    167.56026    72.158114     434.1013    23.514219    22.168491   0.98695097    435.08825   -26.177355   -3766.0898 
   26700   -101539.03   -91408.208    246.01389    20724    226359.32   -13.536024   -30.115615   -183.49864    173.00618    434.31532    23.512231    22.166616   0.87994134    435.19526   -14.943191   -3739.0311 
   26800   -101489.01   -91385.612    245.34788    20724    226321.08   -34.773037   -137.89526    110.71896   -77.142821    434.25852    23.511782    22.166193   0.90834097    435.16686   -22.369911   -3753.5485 
   26900   -101481.05   -91370.021    245.53312    20724    226414.16     51.04115   -10.817911   -16.764964    180.70632    434.29849    23.515534    22.169731    0.8883566    435.18684   -5.2037921   -3790.2724 
   27000   -101409.39   -91384.047    243.45233    20724    226393.77    93.248807    44.459724    66.584295     168.7024    434.38936    23.512016    22.166414   0.84291977    435.23228    10.256556   -3794.8929 
   27100    -101392.3   -91371.052      243.353    20724    226183.06   0.94373777    170.98838   -65.484144   -102.67303    434.27058    23.504285    22.159125   0.90230887    435.17289   -7.6116657     -3790.49 
   27200   -101442.43   -91349.675     245.0895    20724    226390.93    33.379539   -15.738031     207.9312   -92.054549    434.38243    23.512056    22.166451   0.84638328    435.22882     8.393889   -3825.3796 
   27300    -101363.1    -91334.31    243.53614    20724     226111.5   -21.977856    -50.49236    97.754342   -113.19555    434.21056    23.502191    22.157151   0.93231846    435.14288     19.05628   -3857.5903 
   27400   -101454.73   -91314.454    246.24336    20724    226314.75    54.941409    47.611652    74.817051    42.395524    433.96346    23.519445    22.173418    1.0558715    435.01933   -6.3793018   -3851.5057 
   27500   -101310.58   -91299.281    243.11126    20724    226111.95   -4.2152645   -34.569353    237.36704   -215.44348    434.20293    23.502421    22.157368   0.93613299    435.13907  -0.62047037   -3876.0105 
   27600   -101350.26   -91321.861    243.52664    20724     226100.1    112.79841    125.70801    39.167373    173.51985    434.10745    23.504389    22.159224   0.98387543    435.09132    24.974184    -3884.886 
   27700   -101323.39   -91285.289    243.76231    20724    226080.48    -45.45165    23.843596   -48.805331   -111.39321    433.97798    23.506875    22.161567    1.0486091    435.02659    14.459255   -3905.7616 
   27800   -101460.62   -91245.803    248.05347    20724    226199.82   -25.327178    99.274343   -180.30184    5.0459578    434.26557    23.505292    22.160074   0.90481585    435.17038   -5.3820683    -3924.058 
   27900   -101268.25    -91216.17    244.10162    20724    226108.13    27.376199   -60.842905    201.31707   -58.345565    434.02312     23.50709     22.16177    1.0260387    435.04916   -15.748338   -3947.5988 
   28000   -101347.64   -91223.425    245.85333    20724    226062.64   -30.978762   -55.199372   -210.26036    172.52344    434.19699    23.500019    22.155103   0.93910623    435.13609   -14.057581   -3944.7928 
   28100   -101290.03   -91221.762    244.49468    20724    226088.04   -17.210188   -233.33028    119.32855    62.371169    433.98524    23.507071    22.161752    1.0449784    435.03022   -11.445494   -3948.4318 
   28200    -101285.5   -91275.006    243.09194    20724    225969.68    15.329912    114.89996    94.301186   -163.21141     433.8312     23.50509    22.159884     1.121998     434.9532    -24.33289   -3887.9113 
   28300   -101212.39   -91204.179    243.03639    20724    226136.38    155.90097    199.72402    107.80401    160.17488    433.93318    23.510994    22.165451    1.0710082    435.00419   -27.751635   -3958.4107 
   28400   -101309.52    -91207.86    245.30555    20724    226195.84    -80.06331   -88.360892   -112.78336   -39.045677    433.75985    23.518783    22.172793    1.1576729    434.91753   -30.362361   -3940.2445 
   28500   -101261.48   -91238.664    243.39094    20724    226258.57    57.988952    227.27481    -67.91111     14.60316    434.17015    23.510927    22.165387   0.95252397    435.12268     -15.1653   -3931.1657 
   28600   -101333.42   -91206.673     245.9148    20724     226326.9    33.932783   -38.278359   -68.155711    208.23242     434.3046    23.510837    22.165302   0.88530084     435.1899   -19.253498   -3958.1177 
   28700    -101298.1   -91221.527    244.69639    20724    226228.11   -5.3259223   -105.76171    96.783264   -6.9993185    434.14288    23.510083    22.164591    0.9661623    435.10904   -19.784274   -3942.2389 
   28800   -101299.68   -91179.393    245.75794    20724    226265.56   -39.722639     27.22228   -61.187132   -85.203065    434.22094    23.509915    22.164433   0.92712935    435.14807   -30.176983   -3973.1573 
   28900   -101385.93   -91162.918    248.25248    20724    226434.13   -21.806879   -90.121484   -64.706369    89.407215    434.37444    23.514515     22.16877   0.85037998    435.22482    -46.33407   -3971.6632 
   29000   -101185.78   -91142.149    243.89645    20724    226264.21    69.806816    13.880421    334.16968   -138.62965    434.09216    23.513332    22.167655   0.99152226    435.08368   -44.845793   -4001.3879 
   29100   -101289.51   -91133.796    246.61821    20724    226292.91    42.881563    9.7145278    82.791484    36.138676    434.03169    23.516461    22.170605    1.0217543    435.05345   -16.850293   -4038.2085 
   29200   -101319.62    -91112.62    247.86361    20724    226412.03   -101.51158   -66.437013   -174.98718   -63.110548    434.13284    23.519909    22.173856    0.9711801    435.10402   -29.997899      -4036.4 
   29300    -101189.3   -91070.879    245.71258    20724    226362.93    -45.55046     -191.386     13.10136     41.63326    434.31429    23.512446    22.166819   0.88045704    435.19474   -38.607803   -4074.5159 
   29400   -101285.61   -91078.024    247.87789    20724    226452.38   -38.985287    44.373756    246.71668    -408.0463    434.15422    23.521426    22.175285   0.96048874    435.11471   -59.799342   -4045.4043 
   29500   -101308.17   -91099.571    247.90243    20724    226160.24    -54.68959   -17.717829   -50.303332    -96.04761    434.26079    23.503364    22.158257   0.90720431      435.168   -26.919846   -4067.6572 
   29600   -101222.66   -91094.871    245.94016    20724    226301.09    34.336529   -37.667978    53.809023    86.868543    434.33013    23.508805    22.163387   0.87253728    435.20266   -40.157984   -4058.2857 
   29700   -101189.11   -91016.369    247.03178    20724    226364.71    52.344367    96.899106   -244.39577    304.52977    434.03151    23.520197    22.174126     1.021843    435.05336   -75.680824   -4101.0159 
   29800   -101176.25   -90996.496      247.202    20724    226448.98    22.825232    -97.18594    237.32596   -71.664325    434.23588    23.519038    22.173034   0.91966197    435.15554    -75.59412   -4119.9809 
   29900    -101159.7   -90944.861    248.05412    20724    226217.88    63.681285    54.338655    113.85354     22.85166    434.15106     23.50933    22.163882   0.96207066    435.11313   -77.689269   -4176.8898 
   30000   -101191.53   -90961.087    248.43292    20724    226294.32    -49.24389    44.657215   -137.97448   -54.414402     434.2407    23.510874    22.165337   0.91724759    435.15795   -71.921527   -4163.4551 
   30100   -101075.29   -90960.105    245.63399    20724    226236.73   -29.722706   -168.11673    26.516564    52.432049    434.16013    23.510064    22.164573   0.95753526    435.11766   -67.808983   -4169.7932 
   30200   -101100.86   -90995.411    245.39764    20724    226170.55   -25.608143   -159.46621    128.35942   -45.717645    434.03063    23.510131    22.164637    1.0222862    435.05291    -67.56519   -4137.8345 
   30300   -101133.72   -90983.123    246.49412    20724    226170.73     46.20893    66.447048    -51.13575    123.31549    434.09458    23.508409    22.163013    0.9903085    435.08489    -61.45293   -4161.9593 
   30400   -101228.68   -91010.355    248.13872    20724    226092.62    14.615422    105.92346    51.020252   -113.09744    434.04834    23.505601    22.160366    1.0134275    435.06177    -68.52835   -4132.1428 
   30500   -101176.62   -90993.781    247.27688    20724    226095.37    27.371868    89.216415   -107.36846    100.26765    433.95454    23.508284    22.162896    1.0603285    435.01487     -93.5227   -4125.3394 
   30600   -101223.18   -90999.431    248.27046    20724    226011.96    120.00696   -9.6725909    186.50873    183.18475    433.50768    23.516058    22.170225    1.2837586    434.79144   -64.244874    -4156.698 
   30700   -101164.52   -90926.747    248.61092    20724    226190.64   -27.729594   -222.09236    31.173869    107.72971    433.73987    23.519054     22.17305    1.1676641    434.90754   -73.150129   -4208.5437 
   30800   -101083.35   -90939.392    246.33287    20724    226185.59   -29.712295    20.778532   -142.77821    32.862798    433.84843    23.515849    22.170028    1.1133859    434.96181   -73.231107   -4195.8113 
   30900   -101118.87   -90867.821    248.93334    20724    226149.61    25.506651    62.565102   -227.09464    241.04949    433.64634    23.519457    22.173429     1.214428    434.86077   -105.55049   -4240.3174 
   31000   -101087.88   -90893.673    247.55291    20724    226101.81   -14.254465   -97.020804    189.16545   -134.90804    433.78806     23.51313    22.167464    1.1435697    434.93163   -89.374803   -4232.3553 
   31100   -101088.53   -90888.157    247.70286    20724    226232.66   -49.200092   -78.225536   -40.350059   -29.024682    433.86592    23.517822    22.171887    1.1046397    434.97056   -90.461124   -4232.5352 
   31200   -101073.73   -90856.275    248.11748    20724    226190.71   -66.888984   -155.33235   -86.995523    41.660927    433.78492    23.517837    22.171902    1.1451422    434.93006   -118.83056   -4238.1163 
   31300   -101116.25    -90843.64    249.45684    20724    226152.53    24.960686    125.19359   -33.154301   -17.157235    434.03236    23.509148     22.16371    1.0214204    435.05378   -95.409815   -4280.0993 
   31400   -101046.05   -90866.153     247.2056    20724    226022.76    58.363093   -43.457921    139.85615     78.69105    433.78498    23.509102    22.163667    1.1451091    434.93009    -90.81716   -4268.9856 
   31500   -101106.17   -90860.012     248.8147    20724    226256.26    33.169473    88.602509    127.43314   -116.52723    433.90508    23.517987    22.172043    1.0850579    434.99014   -101.14622   -4258.0924 
   31600   -101131.72   -90893.404    248.62421    20724    226197.51    18.777757    139.02394   -66.142991   -16.547675    433.92824    23.514306    22.168573    1.0734788    435.00172   -80.000552   -4250.3877 
   31700   -101015.63   -90831.464     247.3092    20724     226184.2    25.166103    23.392652    113.76309   -61.657435    433.58091     23.52303    22.176798    1.2471454    434.82805   -98.358408   -4293.3483 
   31800   -101173.31   -90850.198    250.68322    20724    226297.71    6.6676736   -31.623154    164.79148   -113.16531    433.65624    23.526889    22.180435    1.2094811    434.86572   -87.155636   -4284.6215 
   31900   -101076.89   -90877.283    247.68415    20724    226183.82     30.88171    212.41345   -80.931763   -38.836553    433.74124    23.518663    22.172681    1.1669824    434.90822   -98.064514   -4249.9431 
   32000   -101024.16   -90896.698    245.93212    20724    226112.03    30.902809    236.73695   -121.16357    -22.86496    433.72468    23.515379    22.169584    1.1752602    434.89994   -78.969108   -4253.9152 
   32100   -101090.32   -90902.406    247.40029    20724    226105.46   -130.35585   -21.877605   -8.5999057   -360.59004    433.67517    23.516379    22.170528    1.2000155    434.87518   -87.885899   -4232.5986 
   32200   -101056.72   -90921.428    246.12228    20724     225917.6    69.986135    196.40549   -41.152965    54.705874    433.77264    23.503967    22.158826    1.1512799    434.92392   -75.114394   -4242.9886 
   32300   -101087.61   -90930.316     246.6566    20724    225998.39    27.642417    16.713289    115.80765   -49.593684    433.83393    23.506509    22.161222    1.1206349    434.95457   -70.198024   -4236.9102 
   32400   -101091.87    -90919.24    247.02917    20724    226002.41    23.007732   -54.458954   -94.750205    218.23235    433.62914    23.512268    22.166651     1.223028    434.85217   -70.064356   -4249.0194 
   32500   -101108.38   -90876.854    248.45939    20724    226047.45   -54.891367   -165.42345   -140.15323    140.90258    433.45077    23.519448    22.173421    1.3122147    434.76299   -70.234844    -4285.442 
   32600   -101082.83   -90861.746    248.20582    20724    225852.93    45.866952    130.99032    98.802297   -92.191758    433.30656    23.513238    22.167566    1.3843193    434.69088   -81.545847   -4301.2288 
   32700   -101129.56   -90877.454    248.95915    20724    226006.75   -15.856064    54.202326    63.967124   -165.73764    433.70138    23.510536    22.165018    1.1869093    434.88829   -74.796677   -4286.2463 
   32800    -101113.6   -90925.575    247.40303    20724    225939.55    62.551939   -37.121194    273.67103   -48.894017    433.45231    23.513793    22.168089    1.3114459    434.76375   -82.105553   -4237.2159 
   32900   -101129.33   -90942.988    247.36202    20724    225993.61    63.358172    178.98351   -190.88971    201.98072    433.51172    23.514994    22.169222    1.2817402    434.79346   -84.968341   -4216.0015 
   33000   -101190.13   -90941.889    248.86521    20724    225802.28    60.199603   -3.9698193     134.5687    49.999931    433.10388    23.516102    22.170266    1.4856585    434.58954   -75.658966   -4235.4881 
   33100   -101148.69   -90894.871    249.00069    20724    225836.65     39.76908   -116.70899    120.18435    115.83188    433.43219    23.508983    22.163555    1.3215044     434.7537   -91.490252   -4265.3348 
   33200   -101066.96   -90868.212     247.6634    20724     225854.4     140.6294    91.849611    124.09555    205.94303    433.36246    23.511798    22.166209    1.3563687    434.71883   -79.253006   -4310.4131 
   33300    -100949.9   -90819.954     245.9925    20724    225868.82    78.309342    -71.21949    59.047306    247.10021    433.23031    23.516135    22.170297    1.4224454    434.65275   -103.76823    -4328.551 
   33400   -101070.97    -90823.06    248.85707    20724    225833.92   -110.23202      101.539     78.18419   -510.41926    433.42976    23.508907    22.163483    1.3227204    434.75248    -110.9369   -4313.8191 
   33500   -101097.65   -90834.868    249.21818    20724    225840.85   -34.621326    61.157494   -58.567444   -106.45403    433.50463    23.507238    22.161909    1.2852872    434.78991   -108.21646   -4308.1696 
[...]
  491800   -95975.587   -84275.837     284.1132    20724    221788.76    79.203867    23.761307     187.2007    26.649597    426.36864    23.489532    22.145216     4.853279    431.22192    5903.0909   -24034.089 
  491900   -95952.325   -84277.931    283.49743    20724     221971.5    74.146233   -15.640724   -91.163866    329.24329    426.19694    23.503939      22.1588    4.9391294    431.13607    5911.0656   -24035.935 
  492000   -96044.712   -84255.954    286.27462    20724    222208.26   -65.929984   -85.523339   -84.626991   -27.639621    426.43039    23.510033    22.164544    4.8224069    431.25279    5894.8317   -24028.544 
  492100   -95875.716   -84243.374    282.47627    20724    222140.73   -96.649448   -310.25305    -240.3494     260.6541    426.04395    23.517119    22.171225    5.0156267    431.05957    5910.2976   -24058.779 
  492200   -95957.996   -84218.105    285.08795    20724    221764.48    -11.00605   -144.04067    177.71615   -66.693627    425.46039    23.513303    22.167627    5.3074037     430.7678    5914.8194   -24106.375 
  492300   -95904.592   -84247.478    283.07781    20724     221930.6    11.110399    147.88622   -194.29772    79.742692    425.18288    23.529783    22.183164    5.4461575    430.62904    5917.1689   -24080.018 
  492400   -95826.469   -84257.597    280.93499    20724    221887.83   -5.6312786   -70.169695   -147.32266    200.59851    425.41213    23.521176    22.175049    5.3315357    430.74366    5906.4473   -24059.082 
  492500   -95845.388   -84263.046    281.26209    20724    221675.87   -47.868232   -4.5504124    222.33391    -361.3882    425.36521    23.511235    22.165678    5.3549938    430.72021    5895.8914   -24050.973 
  492600   -95999.652   -84321.303    283.59347    20724    221636.63    178.26302     175.6963   -26.493738    385.58649    424.93367    23.521089    22.174967    5.5707662    430.50443    5890.0295   -24000.092 
  492700    -95967.98   -84272.937    283.99887    20724    221793.32    10.699352    60.137305    70.831952     -98.8712    425.03974    23.526465    22.180036    5.5177306    430.55747    5906.5808   -24053.142 
  492800   -96000.545   -84318.217    283.69013    20724    221375.98   -5.8624761   -63.105197    68.144403   -22.626634    424.95239    23.506736    22.161436    5.5614061    430.51379    5906.3947   -24025.364 
  492900   -95973.773   -84303.544    283.39632    20724    221690.59   -68.193408   -142.72935   -38.967176   -22.883702    425.16341    23.517595    22.171674     5.455895    430.61931     5909.957   -24028.529 
  493000   -95860.902   -84290.715    280.96691    20724    221483.53    2.0977115    36.838583   -54.095872    23.550423    424.79474    23.516808    22.170932    5.6402302    430.43497    5894.2955    -24038.75 
  493100   -95946.666    -84300.44    282.81344    20724    221610.13    7.3728828   -94.702337    158.09654   -41.275559    425.01037     23.51756    22.171641    5.5324158    430.54278    5898.7638   -24032.367 
  493200   -96101.136   -84309.983    286.33279    20724    221506.48   -87.686585   -22.646524   -324.19099    83.777755    425.15994    23.507923    22.162556    5.4576299    430.61757    5903.9407    -24028.73 
  493300   -95999.276   -84264.101    284.97344    20724    221815.71   -94.798155   -234.33943   -95.798995     45.74396     425.0977    23.526049    22.179643    5.4887492    430.58645    5886.2091   -24050.143 
  493400   -95918.177   -84226.501    283.91711    20724    221700.78     36.44737     -87.1739    240.10455   -43.588543    425.10423    23.519772    22.173726    5.4854842    430.58972    5867.9562   -24078.013 
  493500   -95884.113   -84224.456    283.13958    20724    221743.48   -19.889508   -85.492004    51.163427   -25.339947     424.9526    23.526233    22.179817    5.5612988     430.5139    5883.2482   -24092.044 
  493600   -95917.325   -84198.005     284.5884    20724    221572.89   -47.501734    109.36176   -69.190104   -182.67686    425.12967    23.512284    22.166667    5.4727671    430.60243    5857.1282   -24099.919 
  493700   -95931.444   -84205.564    284.74772    20724    221695.07    12.865432    28.171065    -169.7101    180.13533    425.24884     23.51547    22.169671    5.4131814    430.66202    5872.5354   -24107.329 
  493800   -96009.671   -84204.497    286.67327    20724    221347.53   -145.90631   -196.41787   -122.28122   -119.01986    424.72233     23.51159    22.166012    5.6764332    430.39877    5863.2213   -24105.274 
  493900   -95795.956   -84264.457    280.02742    20724    221200.25    1.2378279   -165.06661    77.133812    91.646285    424.57215    23.507924    22.162556    5.7515259    430.32367    5881.2603   -24075.003 
  494000   -95996.387   -84305.043    283.90908    20724    221103.37   -102.08943   -56.770033   -429.14305    179.64479    424.29967    23.510321    22.164816     5.887764    430.18744    5885.0832   -24039.967 
  494100   -95837.878   -84290.543    280.41199    20724    221431.83    42.808944    99.364585   -365.51758    394.57982    424.78234    23.514406    22.168667    5.6464304    430.42877    5870.8098    -24035.75 
  494200   -95981.262   -84316.277    283.26896    20724    221326.48    -11.87057    21.522258   -59.390436    2.2564678    424.55902    23.514993    22.169221    5.7580877    430.31711    5894.0345   -24037.276 
  494300    -95959.68   -84348.466    281.96321    20724    221151.42   -79.312338   -128.22039   -141.84706    32.130437    424.51976    23.506779    22.161477    5.7777211    430.29748    5893.2407   -24007.996 
  494400   -95982.445   -84301.229    283.66312    20724     221126.4    68.467139    9.8962918    256.58936   -61.084235    424.14609    23.515801    22.169982    5.9645557    430.11064     5881.729   -24053.321 
  494500    -95976.07       -84332    282.76106    20724    220949.58    1.2028417    160.11041   -103.46206   -53.039825    423.64686    23.520243     22.17417    6.2141717    429.86103    5894.3167   -24040.214 
  494600   -96038.869   -84312.363    284.76292    20724    221055.65   -35.722936    3.2867548    85.978068   -196.43363    423.81893    23.521112     22.17499    6.1281357    429.94706    5891.1586   -24052.867 
  494700   -96001.322   -84300.322    284.14354    20724     221368.5    15.101724    242.67087   -245.15331    47.787614    424.16462    23.528157    22.181631    5.9552909    430.11991    5859.5107    -24024.59 
  494800   -95849.667   -84349.213    279.27356    20724    221359.98    114.64602   -97.235624    122.95186    318.22182    423.94763    23.533725     22.18688    6.0637872    430.01141    5894.4228   -24016.833 
  494900   -95907.948    -84294.67    282.01333    20724    221075.14    23.053521    141.05069    -182.6643    110.77417    423.42196    23.533172    22.186359    6.3266184    429.74858    5858.0369   -24045.784 
  495000   -95841.229   -84272.466    280.93233    20724    221051.71    3.3264234   -54.671269     144.3747    -79.72416    423.02377    23.542998    22.195623    6.5257128    429.54949    5863.8428       -24075 
  495100   -95919.256   -84269.767    282.89265    20724    220838.26   -33.542454    84.866162    100.86912   -286.36265    422.94332    23.533867    22.187014    6.5659417    429.50926    5889.6245   -24109.906 
  495200   -95835.161   -84303.248    280.03749    20724    220724.19     45.14326    152.59703   -21.437335    4.2700835    422.87905    23.529576    22.182969    6.5980775    429.47712    5905.5781   -24102.611 
  495300   -95926.461   -84299.102    282.35529    20724     220903.1    31.860639   -162.16809    76.488672    181.26133    423.24183    23.529019    22.182444    6.4166862    429.65851    5897.5418   -24093.956 
  495400   -95825.118   -84314.403    279.52272    20724    220886.56    67.351398    42.884086     165.9383   -6.7681941      423.183    23.529774    22.183156    6.4460976     429.6291    5904.2012   -24090.047 
  495500   -95885.479   -84267.201    282.13474    20724    220913.17    7.2316747   -52.083433    176.42717   -102.64872    422.96191    23.537341    22.190289    6.5566456    429.51855    5893.0539   -24124.343 
  495600   -95853.206   -84282.482    280.97996    20724    220800.28    102.54937    327.88661    222.04425   -242.28275    423.01199    23.529933    22.183306     6.531606    429.54359    5883.0043   -24107.956 
  495700   -95873.496   -84255.279    282.13326    20724    221337.97    181.28194    295.45489     110.7777    137.61322     423.5376    23.543943    22.196514    6.2688013     429.8064    5863.2663   -24102.328 
  495800   -95804.199    -84226.95    281.13841    20724    221205.54   -30.214181   -25.062532   -71.518384    5.9383721     423.5993    23.535184    22.188256    6.2379505    429.83725    5876.0343   -24140.405 
  495900   -95955.411   -84252.492    284.19013    20724    221290.21   -81.003484   -308.42585   -24.342881    89.758279    423.42762    23.544459    22.197001    6.3237924    429.75141    5877.0752   -24112.542 
  496000   -95809.992   -84238.423    281.00049    20724    220937.88   -90.459328   -209.60521    76.903917   -138.67669    423.37672    23.527123    22.180656    6.3492399    429.72596    5880.1757   -24140.446 
  496100   -95913.786   -84265.429    282.86517    20724    221134.25   -11.239663   -84.221793    11.150809    39.351995     423.6348    23.530406    22.183751    6.2202019      429.855    5882.0288   -24114.895 
  496200   -95868.811   -84260.421    281.89462    20724    220941.13    72.611416    68.782912     76.33869    72.712644    423.48514    23.524284     22.17798    6.2950323    429.78017    5881.3627   -24130.797 
  496300     -95867.6   -84286.304    281.23668    20724    221189.89   -26.461106    98.158185   -162.84589   -14.695613    423.43924    23.538799    22.191664    6.3179793    429.75722    5897.0411   -24108.915 
  496400   -95917.696   -84248.974    283.35971    20724    220755.17   -6.5748037   -218.32581   -82.512442    281.11384    422.88112    23.531169    22.184471     6.597042    429.47816    5893.0754   -24162.207 
  496500   -95812.397   -84241.248    280.99029    20724    220807.52    81.650399    106.92484     31.03448    106.99187    422.67961    23.539568    22.192389    6.6977959     429.3774    5876.9954    -24158.11 
  496600   -95837.201   -84226.817    281.94305    20724    220805.07   -50.742876   -52.658518   -108.09073     8.520625    422.94196    23.532136    22.185382    6.5666192    429.50858    5881.8435   -24174.426 
  496700   -95936.539   -84223.702    284.43099    20724    221116.37     35.14701   -182.13977    37.035505     250.5453    422.90603    23.549719    22.201959    6.5845834    429.49062    5855.8016   -24144.152 
  496800   -95790.623   -84237.366    280.55579    20724     220740.5     9.350152    34.949655    34.496263   -41.395461    422.66225    23.536479    22.189477    6.7064732    429.36873    5879.1469    -24166.88 
  496900   -95799.316   -84197.904    281.72519    20724    221052.35   -6.5570201   -18.820278    -370.1818    369.33102    423.04187    23.542529     22.19518    6.5166656    429.55853    5879.4924   -24196.571 
  497000   -95884.155   -84247.453    282.58214    20724    220915.73    85.288288    94.588747   -81.109623    242.38574    422.90972     23.53893    22.191787    6.5827416    429.49246    5888.7974   -24168.197 
  497100   -95886.103   -84268.597    282.11601    20724    220990.95    47.767069    90.562031   -137.97115    190.71033    422.92601    23.542483    22.195137    6.5745947    429.50061    5876.2725   -24130.563 
  497200   -95876.634   -84263.265    282.01554    20724    220815.01    5.6194323    59.966078   -68.755054    25.647274    422.75891     23.53776    22.190684    6.6581436    429.41706    5900.5141   -24165.603 
  497300   -95875.561   -84235.627    282.66061    20724    220781.44    70.289618    143.45596   -12.501763    79.914658    422.65166    23.538956    22.191812    6.7117695    429.36343     5887.157   -24183.606 
  497400   -95837.023   -84235.367    281.73111    20724       221042    27.521653    4.1004494    107.23989   -28.775376    423.18223    23.538073    22.190979     6.446485    429.62871    5880.4098     -24169.7 
  497500   -95912.697   -84236.258    283.54711    20724    221165.86    73.934471    14.033344     41.00123    166.76884    423.05236    23.548281    22.200603    6.5114211    429.56378    5908.4105   -24196.576 
  497600   -95824.792    -84191.13    282.50834    20724       220840   -23.531421   -72.953137    35.903094   -33.544218    423.25223     23.52537    22.179004    6.4114844    429.66372    5877.7612   -24217.904 
  497700   -95789.653   -84219.091    280.97604    20724    220847.34    48.905767   -94.935278    305.50786   -63.855279    422.95757    23.533954    22.187096    6.5588173    429.51638    5897.8303   -24214.537 
  497800   -95970.496    -84205.61    285.69493    20724    221286.16   -59.521227   -38.308574    236.72546   -376.98057    423.54019    23.541115    22.193847    6.2675028     429.8077    5893.0767   -24206.527 
  497900   -95903.123   -84213.542    283.86624    20724    221141.94     23.56096    247.43621    -123.2364   -53.516928    423.55814    23.532944    22.186144    6.2585318    429.81667    5911.6626   -24227.608 
  498000   -95882.642   -84183.276    284.10387    20724    221050.16    15.105348   -4.8266373   -133.12618    183.26886    423.68306    23.524591    22.178269    6.1960699    429.87913    5906.6573   -24256.618 
  498100   -95967.548   -84186.672    286.08322    20724    221075.43   -117.15167   -219.76688   -2.3775248    -129.3106    423.75676     23.52389    22.177608    6.1592223    429.91598    5890.8914   -24231.835 
  498200   -95972.641   -84222.774    285.33019    20724    221077.48    -84.18156   -321.85949    182.88495   -113.57014    423.64761    23.527029    22.180568    6.2137973     429.8614    5909.1088   -24217.738 
  498300    -95825.35   -84190.594    282.53491    20724       221182    90.112639    64.327514    13.327773    192.68263    423.76805    23.529245    22.182657    6.1535746    429.92163     5893.979    -24243.75 
  498400   -95826.678   -84172.992    282.99459    20724    221204.81    41.724993   -78.599782    104.79632    98.978438    423.57337    23.535866    22.188899     6.250914    429.82429     5884.552   -24247.978 
  498500   -95906.727   -84221.653    283.75679    20724    221273.52    131.64962    97.460685   -130.36152    427.84969    423.69898    23.536031    22.189055    6.1881092    429.88709    5918.9354    -24238.27 
  498600    -95867.61   -84194.256     283.4722    20724    221030.38   -82.649799   -111.67111   -105.66128   -30.617004    423.33419    23.533229    22.186413    6.3705052    429.70469    5911.0427   -24257.616 
  498700   -95882.464   -84223.805    283.11535    20724    221155.39   -53.369045   -105.12038    39.591982   -94.578731    423.49575    23.535393    22.188453    6.2897265    429.78547    5946.2726   -24262.107 
  498800   -95767.518   -84239.904    279.93308    20724    221341.68   -121.04546   -305.18665    54.596566    -112.5463    423.96019    23.532403    22.185634    6.0575044     430.0177    5959.3743   -24248.512 
  498900   -95935.896   -84246.682    283.85732    20724    221094.54   -36.807993    36.798865   -159.63415    12.411302    423.78499    23.524123    22.177828    6.1451028     429.9301    5953.4004   -24250.401 
  499000   -95832.085   -84196.451     282.5562    20724    221412.28    73.771328    250.88893   -242.75503    213.18009    424.19773    23.529565    22.182958    5.9387333    430.13647    5945.7083   -24290.228 
  499100   -95848.536   -84197.609    282.92758    20724    221392.62    -96.67785   -26.323259   -370.92874    107.21845      424.368      23.5238    22.177523    5.8536022     430.2216    5947.2238   -24284.778 
  499200   -95879.227   -84208.971    283.39696    20724    221427.26   -51.158423   -136.13251   -101.25126    83.908501    423.87748    23.539248    22.192087    6.0988617    429.97634    5976.1835   -24305.345 
  499300   -95828.469   -84186.211    282.71705    20724     221510.7    72.688421   -12.091169      9.94816    220.20827    423.87079    23.543868    22.196443    6.1022031      429.973    5967.1409   -24321.995 
  499400    -95854.01   -84202.716    282.93648    20724    221418.28    41.172626    197.56086   -193.15318     119.1102    424.03549    23.534385    22.187502    6.0198528    430.05535    5969.8072   -24312.005 
  499500   -95890.295   -84202.733    283.81721    20724    221389.22   -14.577763   -57.472684    168.39146   -154.65207    424.31055    23.525211    22.178854    5.8823251    430.19287     5948.104   -24290.233 
  499600   -95821.221   -84204.801    282.08963    20724    221435.16      38.6448    34.310323    246.37369   -164.74961    424.38489    23.525591    22.179212    5.8451568    430.23004    5945.1357   -24287.564 
  499700   -95846.717   -84209.516    282.59428    20724     221472.9   -15.088202   -166.78738   -235.15516    356.67793    424.50854    23.524169    22.177872    5.7833285    430.29187      5954.98   -24288.986 
  499800   -95976.143   -84208.439    285.76338    20724    221666.47    55.498818    333.10703   -283.25019    116.63962    424.60887    23.531666     22.18494    5.7331637    430.34204    5960.3668   -24295.381 
  499900   -95854.484   -84193.343    283.17561    20724    221566.98   -109.20033   -11.241383     -259.206   -57.153616     425.0186    23.515042    22.169267    5.5283013     430.5469    5958.7578   -24304.238 
  500000   -95765.084   -84142.202    282.24654    20724    221689.08    78.174721   -163.65798    271.23711    126.94503    425.29619    23.513844    22.168137    5.3895071    430.68569    5937.7736   -24339.704 
Loop time of 70531.5 on 32 procs for 500000 steps with 20724 atoms

Performance: 1.225 ns/day, 19.592 hours/ns, 7.089 timesteps/s
97.4% CPU use with 32 MPI tasks x no OpenMP threads

MPI task timing breakdown:
Section |  min time  |  avg time  |  max time  |%varavg| %total
---------------------------------------------------------------
Pair    | 12901      | 14293      | 16210      | 820.2 | 20.26
Bond    | 0.79888    | 0.88643    | 1.4414     |  14.2 |  0.00
Kspace  | 13056      | 14976      | 16368      | 802.5 | 21.23
Neigh   | 10591      | 12731      | 14709      |1459.9 | 18.05
Comm    | 471.46     | 1852.9     | 4431.6     |2587.7 |  2.63
Output  | 5.8157     | 31.577     | 44.749     | 199.9 |  0.04
Modify  | 24969      | 26560      | 29767      | 856.7 | 37.66
Other   |            | 86.44      |            |       |  0.12

Nlocal:    647.625 ave 700 max 598 min
Histogram: 2 1 1 9 9 1 2 1 3 3
Nghost:    7448.66 ave 7829 max 7110 min
Histogram: 3 3 4 5 5 2 3 0 4 3
Neighs:    237626 ave 273004 max 212070 min
Histogram: 2 1 15 3 1 1 2 2 2 3
FullNghs:  475248 ave 544911 max 423920 min
Histogram: 2 2 13 4 1 0 3 2 2 3

Total # of neighbors = 15207951
Ave neighs/atom = 733.833
Ave special neighs/atom = 2
Neighbor list builds = 500000
Dangerous builds not checked
write_data production.R1
PPPM initialization ...
  extracting TIP4P info from pair style
WARNING: Using 12-bit tables for long-range coulomb (../kspace.cpp:316)
  G vector (1/distance) = 0.345823
  grid = 400 48 48
  stencil order = 5
  estimated absolute RMS force accuracy = 0.000403782
  estimated relative force accuracy = 1.21598e-06
  using double precision FFTs
  3d grid and FFT values/proc = 67260 38400
write_restart restartproduction.R1
PPPM initialization ...
  extracting TIP4P info from pair style
WARNING: Using 12-bit tables for long-range coulomb (../kspace.cpp:316)
  G vector (1/distance) = 0.345823
  grid = 400 48 48
  stencil order = 5
  estimated absolute RMS force accuracy = 0.000403782
  estimated relative force accuracy = 1.21598e-06
  using double precision FFTs
  3d grid and FFT values/proc = 67260 38400
Total wall time: 19:35:32
