LAMMPS (30 Jul 2016)
# Sets up LAMMPS simulation for transient melting of ice: TIP4P/Ice
# Ensure cold thermostats do not move
# Thinbox: 16x1x1
# Defects
# Order param l=2

#### setting MD parameters ####
units real
boundary p p p
atom_style full

# read ice box in restart file
#read_data ice-ih-restart.data
read_restart restart.state
  orthogonal box = (0.27681 0.014937 0.0140822) to (435.798 23.5163 22.1704)
  32 by 1 by 1 MPI processor grid
  20736 atoms
  13824 bonds
  6912 angles
  2 = max # of 1-2 neighbors
  1 = max # of 1-3 neighbors
  1 = max # of 1-4 neighbors
  2 = max # of special neighbors

#replicate 16 boxes, 16x1x1


#### force field definition ####
pair_style      lj/cut/tip4p/long 2 1 1 1 0.1577 10.0
pair_modify	tail yes

kspace_style	pppm/tip4p 1.0e-6

bond_style	harmonic
angle_style	harmonic
dihedral_style	none
improper_style	none

bond_coeff	1 450.0 0.9572
angle_coeff	1 55.0 104.52


# reset pair coeff
pair_coeff	* * 0.0 0.0

#OO
pair_coeff	2 2 0.21085 3.1668
#OH
pair_coeff	* 1 0.0000 0.0000

neighbor        2.0 bin
neigh_modify    every 1 delay 1 check no

timestep	2.0
fix		constraints all shake 0.000001 20 0 b 1 a 1
  0 = # of size 2 clusters
  0 = # of size 3 clusters
  0 = # of size 4 clusters
  6912 = # of frozen angles

group water type 1 2
20736 atoms in group water

#*********** SIMULATION PARAMETER TO ADJUST ****************
#Box dimensions
variable lx equal lx
variable ly equal ly
variable lz equal lz

### Temperature of the hot and cold regions ####
variable thi equal 375
variable tlo equal 215
variable runpressure equal 0.986923
# Configuration equilibrated in density and temperature

# Define dx here

variable lx equal lx
variable ly equal ly
variable lz equal lz

variable xlo equal xlo
variable xhi equal xhi


variable dx equal 2.0

### ADD IN DEFECTS AT THE CENTRE OF THE HOT THERMOSTAT ###
variable x1 equal ${lx}/4.0
variable x1 equal 435.521579568619/4.0
variable y1 equal ${ly}/2.0
variable y1 equal 23.5013259023788/2.0
variable z1 equal ${lz}/2.0
variable z1 equal 22.1563356089505/2.0

region kill1 sphere ${x1} ${y1} ${z1} 3
region kill1 sphere 108.880394892155 ${y1} ${z1} 3
region kill1 sphere 108.880394892155 11.7506629511894 ${z1} 3
region kill1 sphere 108.880394892155 11.7506629511894 11.0781678044752 3
delete_atoms region kill1 compress no bond yes mol yes
Deleted 12 atoms, new total = 20724
Deleted 8 bonds, new total = 13816
Deleted 4 angles, new total = 6908




variable thip equal ${thi}*2.0/3.0
variable thip equal 375*2.0/3.0
variable tlop equal ${tlo}*2.0/3.0
variable tlop equal 215*2.0/3.0
variable cbl equal ${lx}*3.0/4.0-${dx}
variable cbl equal 435.521579568619*3.0/4.0-${dx}
variable cbl equal 435.521579568619*3.0/4.0-2
variable cbh equal ${lx}*3.0/4.0+${dx}
variable cbh equal 435.521579568619*3.0/4.0+${dx}
variable cbh equal 435.521579568619*3.0/4.0+2
variable hbl equal ${lx}*1.0/4.0-${dx}
variable hbl equal 435.521579568619*1.0/4.0-${dx}
variable hbl equal 435.521579568619*1.0/4.0-2
variable hbh equal ${lx}*1.0/4.0+${dx}
variable hbh equal 435.521579568619*1.0/4.0+${dx}
variable hbh equal 435.521579568619*1.0/4.0+2


#***************************************************
## EQUILIBRATION PERIOD - to reach the steady state ###
#run 0

#reset the timestep to start your production run
reset_timestep 0

# define a group to perform averages
#group s1 type 1
###*** SYSTEM THERMOSTATTING: HOT and COLD regions ***###

fix NVE all nve
fix PRESS all press/berendsen aniso ${runpressure} ${runpressure} 500000 couple yz
fix PRESS all press/berendsen aniso 0.986923 ${runpressure} 500000 couple yz
fix PRESS all press/berendsen aniso 0.986923 0.986923 500000 couple yz


### Apply THERMOSTATS ###

#set up the "hot region" in the middle of the box
region hot block ${hbl} ${hbh} 0 ${ly} 0 ${lz} units box
region hot block 106.880394892155 ${hbh} 0 ${ly} 0 ${lz} units box
region hot block 106.880394892155 110.880394892155 0 ${ly} 0 ${lz} units box
region hot block 106.880394892155 110.880394892155 0 23.5013259023788 0 ${lz} units box
region hot block 106.880394892155 110.880394892155 0 23.5013259023788 0 22.1563356089505 units box


#set up the "cold region" at the left end of the box
region cold block ${cbl} ${cbh} 0 ${ly} 0 ${lz} units box
region cold block 324.641184676464 ${cbh} 0 ${ly} 0 ${lz} units box
region cold block 324.641184676464 328.641184676464 0 ${ly} 0 ${lz} units box
region cold block 324.641184676464 328.641184676464 0 23.5013259023788 0 ${lz} units box
region cold block 324.641184676464 328.641184676464 0 23.5013259023788 0 22.1563356089505 units box

#set up the "cold region" at the right end of the box
#region cold2 block ${h2bl} ${xhi} 0 ${ly} 0 ${lz} units box


#Cold regions  unification
#region cold union 2 cold1 cold2 units box

#Create group of cold molecules
####group cool_ice region cold
####group cool_ice include molecule

####compute cold_temp cool_ice temp
####fix cold_rescale water temp/rescale 1 ${tlo} ${tlo} 0.0001 1.0
####fix_modify cold_rescale temp cold_temp

#this calculates the temperature using only the atoms in the "hot region"
#compute hot_temp all temp/region hot

# calculate the temperature using only WATER in the "hot region"
compute hot_temp water temp/region hot

#this calculates the temperature using only WATER in the "cold region"
compute cold_temp water temp/region cold


#set up a basic velocity rescale for the hot region WATER with thip
fix hot_rescale water temp/rescale 1 ${thip} ${thip} 1.0 1.0
fix hot_rescale water temp/rescale 1 250 ${thip} 1.0 1.0
fix hot_rescale water temp/rescale 1 250 250 1.0 1.0
#change the thermostat to only act on the "hot region"
#this is done by passing it the "hot temp" compute that we defined above
fix_modify hot_rescale temp hot_temp

#set up a basic velocity rescale for the cold region
fix cold_rescale water temp/rescale 1 ${tlop} ${tlop} 1.0 1.0
fix cold_rescale water temp/rescale 1 143.333333333333 ${tlop} 1.0 1.0
fix cold_rescale water temp/rescale 1 143.333333333333 143.333333333333 1.0 1.0
#change the thermostat to only act on the "cold region"
#this is done by passing it the "cold temp" compute that we defined above
fix_modify cold_rescale temp cold_temp

### Ensure MOMENTUM CONSERVATION ###

#ensure that linear momentum is conserved despite the "thermostatting" by velocity rescaling
fix cons_mom all momentum 1 linear 1 1 1


thermo 100
thermo_style custom step pe etotal temp atoms vol press pxx pyy pzz lx ly lz xlo xhi f_cold_rescale f_hot_rescale

group ox type 2
6908 atoms in group ox
group hy type 1
13816 atoms in group hy
compute KE all ke/atom
variable TEMP atom c_KE*4186.8/(1.3806488*6.02214129)

compute cc1 all chunk/atom bin/1d x center 2 units box
#fix TPROFILE all ave/chunk 1 500 500 cc1 v_TEMP density/number file temp.dat
fix TPROFILEox ox ave/chunk 1 500 500 cc1 v_TEMP density/number file temp-ox.dat
fix TPROFILEhy hy ave/chunk 1 500 500 cc1 v_TEMP density/number file temp-hy.dat

compute orderparam ox orientorder/atom degrees 1 2 nnn 4 cutoff 3.5
compute cc2 ox chunk/atom bin/1d x center 2 units box
#fix ORDERPARAM all ave/chunk 1 500 500 cc2 c_orderparam[1] file order-param.dat
fix ORDERPARAM all ave/chunk 1 500 500 cc2 c_orderparam[1] file order-param.dat

restart 50000 config.restart

run 500000
PPPM initialization ...
  extracting TIP4P info from pair style
WARNING: Using 12-bit tables for long-range coulomb (../kspace.cpp:316)
  G vector (1/distance) = 0.345557
  grid = 405 48 48
  stencil order = 5
  estimated absolute RMS force accuracy = 0.000406794
  estimated relative force accuracy = 1.22505e-06
  using double precision FFTs
  3d grid and FFT values/proc = 67260 38880
Neighbor list info ...
  2 neighbor list requests
  update every 1 steps, delay 1 steps, check no
  max neighbors/atom: 2000, page size: 100000
  master list distance cutoff = 12.3154
  ghost atom cutoff = 12.3154
  binsize = 6.1577 -> bins = 71 4 4
Memory usage per processor = 12.7886 Mbytes
Step PotEng TotEng Temp Atoms Volume Press Pxx Pyy Pzz Lx Ly Lz Xlo Xhi cold_res hot_resc 
       0   -103875.41   -95070.828    213.80781    20724    226777.51   -183.37921   -68.067641    -311.0726   -170.99739    435.52158    23.501326    22.156336   0.27681022    435.79839            0            0 
     100   -103674.32   -94827.324    214.83781    20724    226204.97   -34.997726   -25.328961   -43.708809   -35.955409    434.98811    23.486029    22.141914   0.54354657    435.53165   -12.478148   -242.11998 
     200    -103707.5   -94757.916    217.32892    20724    226446.45   -13.751635    11.300358    30.526985   -83.082248    435.27583    23.490794    22.146407   0.39968711    435.67551   -6.1684561   -312.71334 
     300   -103622.14   -94649.027    217.90043    20724    226243.63    33.847064    223.50054    119.22108   -241.18043    434.95567    23.488912    22.144632   0.55976335    435.51544    -27.16366   -410.36867 
     400   -103587.09   -94616.932    217.82853    20724    226513.71   -2.1313683     39.30968    176.94995   -222.65373    435.24557    23.495099    22.150465    0.4148132    435.66039   -0.8198662    -460.8026 
     500   -103621.06   -94555.024    220.15688    20724    226488.51   -20.862598   -115.69717    186.45158    -133.3422    435.32976     23.49152    22.147091   0.37271793    435.70248   -36.065585   -489.11251 
     600   -103437.79   -94515.164    216.67442    20724    226474.69    36.668327    140.54485    -110.1224    79.582528    435.40231    23.488846     22.14457   0.33644601    435.73875    -14.58268   -552.24555 
     700   -103567.26   -94455.943    221.25654    20724    226486.32    53.393137    29.950394    31.892823    98.336195    435.30297     23.49213    22.147666   0.38611708    435.68908   -39.520262   -589.61758 
     800   -103418.83   -94358.843    220.01008    20724    226557.04   -6.4834386   -101.48965    145.69615   -63.656818    435.28377    23.496315    22.151612    0.3957166    435.67948     -77.5589   -642.36478 
     900   -103545.87   -94355.549     223.1751    20724    226414.46   -1.3039987    40.168029   -121.30619    77.226162    435.22929     23.49039    22.146026   0.42295623    435.65224   -65.479536   -666.09376 
    1000   -103441.91    -94322.49     221.4533    20724    226338.58   -13.227206    176.10021    -10.46933    -205.3125    435.33666    23.483558    22.139584   0.36927143    435.70593   -66.291032   -696.88125 
    1100   -103352.61   -94308.024     219.6359    20724    226442.86    97.922215    42.678007    27.924244    223.16439    435.34375    23.488775    22.144503   0.36572662    435.70947   -35.258344   -745.92027 
    1200   -103420.51   -94313.217    221.15887    20724    226349.74   -4.2789539    24.275375    -129.8084    92.696167    435.35486    23.483645    22.139667   0.36016869    435.71503   -32.681052     -742.902 
    1300   -103401.87   -94264.486    221.88942    20724    226552.57    39.404864   -105.84016    206.69446    17.360291    435.34777    23.494356    22.149765   0.36371407    435.71149   -39.487253    -783.8966 
    1400   -103359.95   -94221.923    221.90517    20724    226370.42   -30.849441    16.691839    6.4634953   -115.70366     435.3483    23.484895    22.140845   0.36344999    435.71175   -37.737706   -828.71066 
    1500   -103285.61    -94140.99    222.06516    20724    226669.46    33.725025     173.0166    120.49212   -192.33364    435.65899    23.492021    22.147563   0.20810638    435.86709   -64.701985   -877.13079 
    1600   -103398.24   -94188.789    223.63962    20724    226614.79   -22.271825   -85.449934   -92.544794    111.17925    435.27863    23.499448    22.154565   0.39828745    435.67691   -52.463199   -844.61125 
    1700   -103394.62   -94110.823    225.44491    20724    226692.26   -61.037408      60.9383   -9.2111329   -234.83939    435.44703    23.498919    22.154067   0.31408282    435.76112   -67.689986   -903.44797 
    1800   -103223.99   -94105.477    221.43126    20724       226500    42.661188    88.693077    -60.74552    100.03601    435.24293    23.494459    22.149862   0.41613528    435.65906   -68.270549   -917.71262 
    1900   -103321.63    -94100.49    223.92349    20724    226493.77   -38.478049    24.488236    87.509938   -227.43232    435.38142    23.490399    22.146034   0.34689032    435.72831   -51.103767   -936.43791 
    2000   -103347.08    -94058.41    225.56328    20724    226560.99   -24.684511   -60.638253    155.80581   -169.22109    435.47789    23.491283    22.146867   0.29865634    435.77654   -54.199522   -975.57433 
    2100   -103297.83   -94053.839    224.47836    20724     226501.5   -14.319546    78.104564    22.648138   -143.71134    435.11742    23.497925     22.15313   0.47888782    435.59631   -50.644426    -987.8023 
    2200   -103223.14   -94037.748    223.05536    20724    226570.76    40.679815   -24.891917    104.27131    42.660058     435.2298    23.498483    22.153656   0.42269822     435.6525   -60.354015   -994.59002 
    2300   -103295.23   -93995.852    225.82318    20724    226621.61   -12.926584   -77.048777   -92.588341    130.85737    435.27702    23.499845     22.15494    0.3990877    435.67611   -64.868747   -1029.5556 
    2400   -103177.09    -94022.29    222.31243    20724    226330.81   -1.7910533    95.642203   -44.372421   -56.642942    435.11157    23.489228     22.14493   0.48181694    435.59338   -47.261519   -1029.8697 
    2500   -103299.42   -93996.029    225.92077    20724     226600.4   -61.105737   -49.703112    88.913266   -222.52737    435.45808     23.49386    22.149297   0.30855963    435.76664    -39.52188   -1056.1378 
    2600   -103266.13   -94006.014    224.86989    20724    226454.84   -24.701498   -35.399957   -88.539485    49.834948    435.25084    23.491903    22.147452   0.41218158    435.66302    -47.71735   -1044.3199 
    2700   -103312.02   -93991.949    226.32585    20724    226521.79   -39.333649   -224.16297   -321.88743    428.04946    435.35734    23.492502    22.148017   0.35893109    435.71627   -36.969251   -1066.6884 
    2800   -103219.18   -93936.318    225.42225    20724    226572.71   -22.737536    69.039395    52.796356   -190.04836    435.50474    23.491166    22.146757    0.2852285    435.78997   -25.031342   -1134.3891 
    2900   -103139.03   -93928.281    223.67109    20724    226624.93    33.202892    66.921587    13.048947    19.638141    435.41939    23.496175     22.15148   0.32790709    435.74729   -29.346345    -1141.179 
    3000   -103189.28    -93922.52    225.03127    20724    226620.02    17.818816     146.7044    157.65573   -250.90368    435.37903     23.49701    22.152266   0.34808416    435.72712   -25.840296   -1151.0185 
    3100   -103176.55    -93949.26    224.07284    20724    226600.88    20.527963   -51.874901    241.09067   -127.63188    435.32849    23.497381    22.152617   0.37335571    435.70184   -26.117302   -1124.6729 
    3200   -103265.65   -93955.664     226.0809    20724    226530.02   -37.480333    120.91787  -0.83079795   -232.52807    435.35601    23.492965    22.148453    0.3595954     435.7156   -23.972425   -1119.6138 
    3300   -103267.92   -93950.441    226.26278    20724    226658.92    7.0090054    31.623134   -53.101328     42.50521    435.43723    23.497456    22.152687   0.31898389    435.75622   -20.236774   -1129.2727 
    3400   -103269.12   -93952.683     226.2375    20724    226494.04   -48.480159   0.94527954   -105.94116   -40.444595      435.246    23.494067    22.149492    0.4145981     435.6606    2.9435854   -1153.4534 
    3500   -103192.09   -93942.424    224.61605    20724    226577.57    19.955714   -2.3491873   -169.66597     231.8823    435.26783     23.49781    22.153021   0.40368282    435.67152   -14.393555   -1147.4956 
    3600   -103202.94   -93941.936     224.8915    20724     226696.3  -0.82445932   -43.724547   -79.691357    120.94253    435.36443    23.501358    22.156366   0.35538678    435.71981    5.2328647   -1163.1901 
    3700   -103147.95   -93896.959    224.64835    20724    226483.34   -39.611793    6.9339574   -78.553034   -47.216303    435.35236    23.490642    22.146263   0.36141836    435.71378    4.3082617   -1212.4718 
    3800   -103197.89   -93866.491    226.60081    20724    226750.18    62.992859     60.73162    150.29823   -22.051271    435.41681    23.502737    22.157666   0.32919676      435.746   -14.660873   -1223.0679 
    3900    -103238.2   -93919.615    226.28965    20724    226504.86    49.170713     1.832838   -22.531346    168.21065    435.37799    23.491067    22.146664   0.34860536    435.72659   -11.353948   -1180.9719 
    4000   -103079.43    -93841.95    224.32023    20724       226589    49.677424    142.33069    138.31552   -131.61395    435.31794     23.49705    22.152305   0.37863105    435.69657    -36.14428   -1230.8283 
    4100   -103283.95   -93856.067    228.94386    20724     226611.6   -11.074827   -28.735208    52.289634   -56.778908     435.3644    23.496968    22.152227    0.3553998     435.7198   -9.3051814   -1241.9699 
    4200   -103131.35   -93838.818    225.65706    20724    226556.26   -47.981836    26.806141   -106.92269   -63.828958     435.3105    23.495553    22.150893   0.38234902    435.69285   -16.264917   -1251.8211 
    4300    -103156.6   -93769.523    227.95282    20724    226840.92    7.7547407    3.7474687   -46.017193    65.533947    435.22475    23.512625    22.166988   0.42522321    435.64998   -40.708118   -1294.5545 
    4400   -103161.98   -93784.312    227.72442    20724    226647.04   -23.256223    140.60588   -198.70223   -11.672324     435.4197    23.497313    22.152553   0.32775129    435.74745   -35.621561   -1288.1094 
    4500   -103146.87   -93781.492     227.4259    20724    226537.81    11.955673    141.94069   -165.65136    59.577695    435.33441    23.493951    22.149383   0.37039609     435.7048   -44.198166   -1288.8253 
    4600   -103195.88    -93759.28    229.15544    20724    226664.73   -74.492443   -272.85107   -123.14705    172.52079    435.34287    23.500303    22.155372   0.36616684    435.70903   -48.065067    -1301.708 
    4700   -103101.27    -93755.16    226.95799    20724    226801.11    15.933996   -14.269736    15.776027    46.295695    435.42054    23.505276    22.160059   0.32733072    435.74787   -39.372454   -1313.9188 
    4800   -103138.08   -93711.759    228.90597    20724    226659.91   -56.779878   -87.913609     -34.3092   -48.116826    435.43954    23.497445    22.152677   0.31782793    435.75737    -41.11695   -1357.4356 
    4900   -103072.99   -93698.139     227.6561    20724    226646.88   -36.637526   -220.13758    18.334129     91.89087    435.30958    23.500277    22.155346   0.38281102    435.69239   -65.130347   -1349.7838 
    5000   -103050.23   -93713.635    226.72695    20724    226665.24    82.529854    70.986639    315.64931   -139.04639    435.35882    23.499899    22.154991   0.35819028    435.71701    -47.15675   -1357.9879 
    5100   -103043.53   -93678.634    227.41423    20724    226713.04   -43.265757    85.573361    256.94174   -472.31237    435.59235    23.496076    22.151386   0.24142266    435.83378   -74.001122     -1359.09 
    5200   -103013.78   -93652.749    227.32039    20724    226501.29   -4.7469585    12.633315    -75.61852    48.744329    435.37273    23.491024    22.146623    0.3512361    435.72396   -70.483403   -1398.8146 
    5300   -103106.81   -93683.419    228.83469    20724    226770.95    36.229855    -69.46949    83.599881    94.559175     435.4534    23.502826    22.157749   0.31089926     435.7643   -45.901925     -1389.02 
    5400   -102983.83   -93587.544    228.17656    20724    226689.32   -14.351207   -99.492839    112.11952   -55.680302    435.62244    23.494036    22.149462   0.22638089    435.84882    -68.84266   -1462.9656 
    5500   -103083.84   -93645.316    229.20227    20724    226764.62    73.080258    178.72546   -59.302589    99.817901    435.50917    23.500993    22.156022   0.28301693    435.79218   -50.614947    -1427.118 
    5600   -103023.08    -93597.93    228.87741    20724    226788.79    -31.79873   -197.00956    108.99472   -7.3813461    435.50372    23.502392    22.157341   0.28574158    435.78946   -54.757096    -1463.897 
    5700   -103052.45   -93576.234     230.1176    20724    226919.48   -4.3624499    39.556763   -152.89739    100.25327    435.39657    23.512056    22.166451    0.3393135    435.73589   -46.284058   -1492.6489 
    5800   -103022.05   -93580.894    229.26629    20724    226689.17    61.825519   -72.521433   -101.69924    359.69723    435.39452    23.500177    22.155252   0.34034088    435.73486   -56.829708   -1488.1351 
    5900   -103067.39   -93554.183    231.01594    20724    226712.99   -23.231804   -140.91408    8.2849658    62.933697     435.4603    23.499636    22.154743   0.30745186    435.76775   -41.287621   -1528.6887 
    6000   -103023.41   -93548.835     230.0776    20724    226812.81   -66.226329   -105.73487   -118.13904    25.194927    435.50975    23.503474    22.158361   0.28272584    435.79247   -40.986305   -1529.4951 
    6100   -102929.06   -93521.601    228.44799    20724    226787.13    11.046682    127.63955   -42.992589   -51.506918    435.40759    23.504901    22.159706   0.33380278     435.7414   -25.995016   -1576.8663 
    6200   -102935.32   -93457.033    230.16796    20724    226911.01   -20.915712    64.175171   -281.23989    154.31758      435.524    23.508177    22.162795   0.27560238     435.7996   -66.492525   -1597.1553 
    6300   -102912.39    -93457.58    229.59768    20724    226664.57   -27.945793   0.62376737   -124.99589    40.534741    435.25616    23.502636    22.157571     0.409519    435.66568   -68.077625   -1600.8585 
    6400   -102902.97   -93380.605    231.23817    20724     226643.4   -19.506958   -187.73668    206.03578   -76.819974    435.33623    23.499377    22.154498   0.36948343    435.70572   -91.279047   -1657.4694 
    6500   -102944.38   -93436.678    230.88224    20724    226678.38     1.446579    39.293488    273.34098   -308.29473    435.34718    23.500895    22.155929   0.36401121    435.71119   -62.016474   -1631.6785 
    6600   -102786.55   -93362.074    228.86101    20724    226854.77    7.4885493   -84.204472    12.295686    94.374433    435.33645    23.510326    22.164821   0.36937647    435.70582   -80.976523   -1682.4928 
    6700    -102877.1   -93404.046    230.04066    20724    226844.01   -30.890122    85.590552   -253.34984    75.088923    435.28124    23.511259    22.165701   0.39697991    435.67822   -81.917275   -1638.5726 
    6800    -102885.7   -93432.407    229.56099    20724    226663.33   -10.403608   -109.16653   -26.487269    104.44297     435.4686    23.496838    22.152105   0.30330199     435.7719      -71.582   -1627.9239 
    6900   -102916.63   -93397.051    231.17065    20724    226720.86   -22.010634    73.932052   -114.30903   -25.654924    435.44073    23.500572    22.155625   0.31723602    435.75796   -71.659907    -1662.376 
    7000   -102922.83   -93409.782    231.01186    20724    226722.12    49.870408    55.498522    65.157482     28.95522    435.29508    23.504569    22.159393    0.3900612    435.68514     -50.9424   -1674.8345 
    7100   -102876.97   -93382.909     230.5509    20724    226663.89    -38.67725    -33.78457    128.79907   -211.04625    435.73236    23.489755    22.145426   0.17141812    435.90378   -60.951095   -1691.1669 
    7200   -102825.62    -93404.09    228.78947    20724    226702.08    41.011171    56.294602     64.24261    2.4963006    435.45168    23.499303    22.154428   0.31175929    435.76344   -66.266427   -1667.2931 
    7300   -102939.77   -93319.455    233.61669    20724    226746.88   -15.516519   -297.80843    170.28454    80.974337    435.33079    23.504888    22.159694   0.37220418      435.703   -60.172912   -1756.8699 
    7400   -102873.09   -93293.475    232.62835    20724    226723.95   -32.236705    73.400751    -148.0426   -22.068265    435.49469    23.499276    22.154403   0.29025561    435.78494   -64.542969    -1779.785 
    7500   -102852.34    -93296.48    232.05163    20724    226730.54    34.745169    23.336862    74.708582    6.1900634    435.20398    23.507465    22.162123   0.43560797    435.63959    -56.14811    -1789.233 
    7600   -102753.56   -93332.155    228.78658    20724    226678.54    16.117091    164.15885   -74.480528   -41.327053    435.41412    23.499097    22.154234   0.33053951    435.74466   -48.192343   -1761.7824 
    7700    -102831.3   -93278.542    231.97634    20724     226874.2   -8.7890043    3.4343808    230.77215   -260.57354      435.777    23.499446    22.154563   0.14910027     435.9261   -54.322379   -1804.6582 
    7800   -102742.38   -93204.224    231.62168    20724    226920.39    63.602348    133.20821    9.0200287    48.578809    435.57204    23.507367    22.162031   0.25157934    435.82362   -70.812504   -1865.6189 
    7900    -102760.7   -93233.926    231.34527    20724    226857.99   -7.4744632   -14.925991   -32.419316    24.921917    435.46162    23.507114    22.161793   0.30678968    435.76841   -72.697266   -1832.7982 
    8000   -102735.01   -93210.494    231.29053    20724    226878.82   -11.650452    5.8783214   -320.26381    279.43413    435.50426    23.507042    22.161725   0.28547015    435.78973    -65.29024   -1861.6972 
    8100   -102850.86   -93174.599    234.97531    20724    226936.81    60.542133   -11.436117    51.736728    141.32579    435.69478    23.504906     22.15971   0.19021008    435.88499   -93.481354   -1875.6162 
    8200      -102875   -93216.297    234.54904    20724    226782.67   -101.39642   -15.685187   -121.47206   -167.03202    435.55883    23.500588     22.15564   0.25818673    435.81701    -78.71239   -1846.2341 
    8300   -102772.54   -93254.956    231.12218    20724    226967.14     85.72491    46.167998    6.5503645    204.45637    435.67988    23.506878     22.16157   0.19766034    435.87754   -78.980075   -1812.0087 
    8400    -102896.9   -93203.715    235.38644    20724    226936.14   -28.564636   -51.848742   -184.40961    150.56445    435.61723    23.506963     22.16165   0.22898636    435.84621   -81.682106   -1856.6009 
    8500   -102692.82   -93181.843    230.96168    20724    226888.41    19.549226   -66.742784    5.9496463    119.44082    435.59158    23.505183    22.159972    0.2418102    435.83339   -66.151973   -1895.8236 
    8600   -102715.39   -93156.554    232.12393    20724    227001.91    57.658504   -16.424607    52.178784    137.22133     435.6275    23.510092      22.1646   0.22385173    435.85135   -111.15234   -1877.5957 
    8700   -102742.32   -93114.535    233.79813    20724    227030.39    67.019641    45.984099    136.44968    18.625142    435.83035    23.506094    22.160831   0.12242278    435.95278   -81.029607   -1948.9225 
    8800    -102802.7   -93153.161    234.32648    20724    227069.88   -7.4533798    10.899737    7.5453338    -40.80521    435.71431    23.511269     22.16571   0.18044402    435.89476   -67.915205    -1920.965 
    8900    -102806.5   -93191.296    233.49274    20724    226955.67   0.61610225    198.29387    69.250341    -265.6959    435.85811    23.501478    22.156479   0.10854666    435.96665   -75.347723   -1880.3898 
    9000   -102810.35   -93218.187    232.93322    20724    226969.43   -44.482167    -152.3493     90.52719   -71.624397     435.6263    23.508442    22.163045    0.2244524    435.85075   -49.412897   -1877.5124 
    9100   -102716.44   -93157.493    232.12653    20724    227009.63   -24.044414   -9.2815837   -62.100897   -0.7507613    435.63541    23.510278    22.164776   0.21989653     435.8553    -73.37718   -1914.5547 
    9200   -102812.27   -93163.325     234.3121    20724     226912.7   -29.120624    69.172561   0.97779894   -157.51223     435.6874    23.503856    22.158721   0.19390183     435.8813   -63.720722   -1922.7101 
    9300    -102658.9   -93119.775    231.64524    20724    226758.18    29.836875   -19.156127    -63.35998    172.02673    435.64021    23.497124    22.152375   0.21749617     435.8577   -63.740625   -1972.5456 
    9400   -102705.59   -93136.738    232.36721    20724    226848.23   -61.504703    136.74768   -234.64926   -86.612535    435.56324    23.503866     22.15873   0.25598169    435.81922   -75.512985   -1937.6586 
    9500   -102754.74   -93080.664    234.92233    20724    226976.74   0.56926491   -35.745587    73.408817   -35.955436    435.67895      23.5074    22.162062   0.19812592    435.87707   -72.068184   -1997.6166 
    9600   -102794.85    -93096.47    235.51254    20724     227004.6    17.402982    105.22439    91.872641   -144.88809    435.69384    23.508441    22.163043    0.1906787    435.88452   -70.130313   -1986.3987 
    9700   -102767.77   -93101.647    234.72915    20724     226903.4    2.8829613   -3.7064066    84.945507   -72.590217    435.60517    23.505593    22.160358   0.23501383    435.84019   -64.175066   -1990.4858 
    9800   -102781.75   -93127.262    234.44657    20724    227046.36   -6.4915332    26.813663   -109.80059    63.512325    435.66728     23.51132    22.165758   0.20395778    435.87124   -53.115791   -1973.2751 
    9900   -102799.26   -93106.857    235.36738    20724    227002.61   -15.534547   -60.926189   -144.11706    158.43961    435.73698    23.507174    22.161849   0.16911075    435.90609   -72.856185   -1975.0773 
   10000    -102671.2   -93064.672    233.28211    20724    226939.27   -9.7037814   -159.27694   -220.02189    350.18748    435.50083    23.510266    22.164764   0.28718551    435.78801   -71.741181   -2019.8989 
   10100   -102673.78   -93070.829    233.19517    20724    227024.36    33.370096   -66.893001    162.81472    4.1885665    435.62813    23.511238     22.16568   0.22353424    435.85167   -70.387904   -2015.5848 
   10200   -102649.87   -93053.038    233.04662    20724    227021.12    51.842893    159.69125    270.53942   -274.70199     435.5961    23.511934    22.166337   0.23954866    435.83565   -74.755257   -2032.9885 
   10300   -102672.13   -93033.435     234.0632    20724    226837.55   -78.446037    52.008792   -140.34522   -147.00168    435.50527    23.504877    22.159683   0.28496457    435.79024   -62.262315   -2064.2662 
   10400   -102674.84   -92998.287     234.9824    20724    227068.41    47.418626   -183.44135    2.5310295     323.1662    435.64348    23.513104     22.16744    0.2158623    435.85934   -67.178237   -2097.0192 
   10500   -102587.02   -92969.075    233.55918    20724    227053.85    -44.35366   -142.86646    42.766427   -32.960945    435.59758    23.513589    22.167897    0.2388111    435.83639   -79.973592    -2108.614 
   10600   -102644.27   -92948.748    235.44323    20724    227129.45   -46.451468    85.076297   -175.37972   -49.050982    435.89031    23.509605    22.164141  0.092446236    435.98275   -96.073893   -2113.7956 
   10700   -102742.36   -92935.009    238.15883    20724    227155.76   -98.347844    -143.1338    -108.8749   -43.034834    435.86665    23.511605    22.166026   0.10427313    435.97093   -87.980548   -2135.9995 
   10800   -102649.36   -92969.142    235.07138    20724    226853.97   -29.515453   -73.183864   -209.90324    194.54074    435.62319    23.502546    22.157486   0.22600715    435.84919    -78.96595   -2120.6023 
   10900    -102665.9   -92976.177    235.30238    20724    226980.85   -14.388424   -21.515988    6.6528253    -28.30211    435.71604    23.506613     22.16132   0.17957867    435.89562   -70.901382    -2120.909 
   11000    -102582.4   -92920.914    234.61653    20724    226905.06   -38.217201   -83.830469   -117.01196    86.190827     435.7389    23.502071    22.157038   0.16814913    435.90705   -85.360699   -2162.3278 
   11100   -102663.78   -92943.515    236.04395    20724    226951.16   -6.2455367    -2.949316   -94.621075    78.833781    435.55426     23.50944    22.163985   0.26046764    435.81473   -67.142482   -2159.8688 
   11200   -102653.52   -92928.839    236.15129    20724    226876.38   -15.905222    234.70201   -33.579188   -248.83849    435.49066    23.507283    22.161952   0.29226902    435.78293   -81.733539   -2162.5562 
   11300   -102604.75   -92892.928    235.83892    20724    227026.89   -43.375506   -47.859584   -47.770716   -34.496217    435.56905    23.512963    22.167307   0.25307358    435.82213   -107.93448   -2165.9294 
   11400   -102587.72   -92855.096    236.34406    20724    226982.16     78.94785    210.57283    32.529269   -6.2585486    435.55616    23.510994    22.165451   0.25952025    435.81568   -120.98446   -2200.2891 
   11500    -102603.8   -92862.764    236.54839    20724    227035.45     9.614706    45.960891   -2.3722869   -14.744486    435.62286    23.511954    22.166355   0.22617118    435.84903   -112.88801   -2196.1547 
   11600   -102586.88   -92907.479    235.05172    20724    226895.85    19.986134   -16.545048      244.017   -167.51356     435.3886    23.511046      22.1655   0.34329767     435.7319   -109.02123    -2159.159 
   11700   -102536.92   -92860.776    234.97261    20724    226866.49    26.190002    182.65934   -126.97415    22.884809       435.47    23.507328    22.161995   0.30260189     435.7726   -100.95929   -2217.6008 
   11800    -102480.8   -92799.336    235.10177    20724    226834.65   -27.900012   -93.082009   -4.4008197    13.782791    435.52078    23.504308    22.159147   0.27721206    435.79799   -117.33348   -2262.9791 
   11900   -102651.03   -92790.779    239.44323    20724    226777.31   -1.8789237   -96.252929   -27.725709    118.34187    435.36516    23.505537    22.160306   0.35501997    435.72018     -149.571    -2242.399 
   12000   -102541.68   -92813.216    236.24314    20724    226774.12   -62.939519     105.3835   -228.48423   -65.717831      435.368    23.505295    22.160078   0.35359978     435.7216   -133.33697   -2235.5809 
   12100   -102615.02   -92804.063    238.24624    20724    226968.45   -1.1159086   -56.297124    76.296545   -23.347147    435.82587    23.503008    22.157922   0.12466369    435.95054   -131.80171   -2243.3065 
   12200   -102530.17   -92813.119    235.96603    20724    227008.59    33.711644      46.2244   -217.72562    272.63615    435.62242    23.510575    22.165056   0.22639115    435.84881   -119.67026   -2249.5563 
   12300   -102607.24   -92841.019    237.15985    20724    226917.83   -22.833557   -97.121947    -71.56237    100.18365     435.5522    23.507769     22.16241   0.26149846     435.8137     -99.0579   -2243.1231 
   12400   -102477.92   -92788.078    235.30528    20724    226792.28    15.225345    124.38126   -29.973339   -48.731889    435.49453    23.502821    22.157745   0.29033294    435.78487    -130.5439   -2270.8093 
   12500   -102469.07   -92739.077    236.28028    20724    226873.59   -22.228888   -34.882717   -115.82638    84.022437    435.64732    23.502911     22.15783    0.2139384    435.86126   -108.54076   -2337.4308 
   12600   -102453.41   -92719.092    236.38533    20724     226955.3    66.847188   -32.187677    139.45086     93.27838    435.70084    23.505699    22.160459   0.18717791    435.88802    -125.9561   -2343.1788 
   12700   -102454.38   -92750.294     235.6511    20724    226914.11   -13.056084    67.675689    65.220257    -172.0642    435.57113    23.507066    22.161747   0.25203664    435.82316   -106.70869   -2329.8326 
   12800   -102463.96   -92749.888    235.89369    20724     226895.6    77.265633   -120.14356    291.91876    60.021695     435.5977     23.50539    22.160167   0.23875094    435.83645    -131.3265   -2311.1389 
   12900   -102532.85   -92754.569    237.45272    20724    226751.66   -13.973033   -62.828124    228.91019   -208.00117    435.56419    23.498837    22.153989    0.2555057    435.81969   -111.33097   -2327.3778 
   13000   -102445.84    -92734.59    235.82499    20724    226915.63    31.767858     181.5897   -53.413229   -32.872891    435.63634    23.505385    22.160163   0.21943088    435.85577   -141.46266   -2316.2306 
   13100   -102556.15    -92741.04    238.34724    20724    226993.28   -66.075837   -297.15402   -7.8639956    106.79051    435.54757    23.511802    22.166212   0.26381567    435.81138   -127.95255   -2318.6414 
   13200   -102446.44   -92714.204    236.33473    20724    226874.06     36.50853   -53.786637   -139.91129    303.22352    435.51219    23.506581     22.16129   0.28150333     435.7937   -152.87623   -2329.5863 
   13300   -102479.88   -92715.741    237.10938    20724    226930.43     42.83678   -104.76618    255.79962   -22.523108     435.4844    23.510252    22.164751   0.29540127     435.7798   -149.47524   -2330.0548 
   13400   -102491.99   -92683.971     238.1749    20724    226864.29   -48.092652   -175.57448     130.4817    -99.18518    435.34548    23.510576    22.165056   0.36486019    435.71034   -164.08143   -2345.6363 
   13500   -102543.33   -92742.092    238.01029    20724    226890.35   -9.7559586     92.28508   -66.411582   -55.141374     435.4491    23.509128    22.163692   0.31305051    435.76215   -162.33434   -2290.4212 
   13600   -102473.73   -92678.098    237.87412    20724    226910.88   -13.415915   -128.93231    366.14112   -277.45656    435.62601    23.505418    22.160193   0.22459611     435.8506   -169.87856   -2348.9048 
   13700   -102490.91   -92685.871    238.10257    20724    227060.94   -6.4215093    42.066793    -51.31183   -10.019491    435.53436    23.515663    22.169852   0.27041834    435.80478   -166.45087   -2342.2717 
   13800   -102471.46   -92716.674    236.88223    20724    226996.74   -31.403573    -87.45573    -29.23771    22.482719    435.59256    23.510767    22.165236   0.24131988    435.83388   -118.14908   -2360.7692 
   13900   -102425.12   -92664.174     237.0319    20724    227062.71   -46.511061    49.870632   -57.325693   -132.07812    435.62752    23.513239    22.167567   0.22383888    435.85136   -126.52612   -2403.3243 
   14000   -102436.43   -92677.718    236.97753    20724     226985.6    15.312392    114.59594    94.430414   -163.08917    435.68796    23.507616    22.162266   0.19362218    435.88158   -117.59401   -2406.9423 
   14100   -102461.74   -92697.478    237.11231    20724    227130.03    27.650481     86.50658   -42.604003    39.048866     435.5628    23.518472    22.172501   0.25619861      435.819   -131.02466   -2370.3795 
   14200   -102461.97   -92704.951    236.93651    20724    226896.34    -13.32652    88.858813   -155.36351    26.525133    435.57552    23.506027    22.160768   0.24984195    435.82536   -127.30687   -2370.8488 
   14300   -102433.42   -92664.023    237.23708    20724    226887.82   -112.36152   -296.29779    70.059833    -110.8466    435.44711    23.509051    22.163619   0.31404699    435.76115   -121.38053   -2414.2945 
   14400   -102399.11   -92667.872    236.31046    20724    226931.77    13.887216      7.58776   -72.539636    106.61352    435.68829    23.504819    22.159629   0.19345311    435.88175   -137.97765   -2399.7296 
   14500   -102412.29   -92620.463    237.78171    20724    226933.11   -17.174544     -196.735    -64.03228    209.24365    435.41041    23.512388    22.166765   0.33239683     435.7428   -138.49329   -2446.6594 
   14600   -102356.77    -92579.75    237.42227    20724    226836.05    17.515701    50.857034    132.34264   -130.65257    435.47521    23.505611    22.160375    0.2999958     435.7752   -164.50517   -2466.6249 
   14700   -102291.05   -92559.773    236.31138    20724     227043.5    19.700806    41.316849    156.07394   -138.28837    435.69872    23.510324    22.164819   0.18824174    435.88696   -158.01911   -2487.1248 
   14800    -102336.9   -92539.648     237.9134    20724    226824.05    -32.25932   -196.25466    5.4460236    94.030673    435.50995    23.504051    22.158905   0.28262557    435.79257   -168.95091   -2501.3665 
   14900   -102412.63   -92580.674     238.7562    20724     226834.8    9.8930174    126.00055   -118.69424    22.372736     435.2573    23.511429    22.165861   0.40895125    435.66625   -156.56725    -2476.264 
   15000    -102406.1   -92518.498    240.10753    20724     226970.2    32.255328   -63.431902    -41.79036    201.98825     435.6149     23.50879    22.163372   0.23015185    435.84505    -168.6634   -2523.7712 
   15100    -102368.8   -92485.473    240.00372    20724    226863.46    4.3711651    90.775005    -213.4894    135.82789    435.48825    23.506679    22.161382   0.29347585    435.78172   -165.18795   -2563.6535 
   15200   -102293.92   -92492.646    238.01124    20724    226646.12   -26.101504   -151.59663   -76.016681    149.30879     435.2981    23.500547    22.155601   0.38854758    435.68665   -142.43821   -2583.8878 
   15300    -102283.7   -92428.869    239.31176    20724    226727.06   -5.3077905    209.07757   -5.6051346   -219.39581    435.35155      23.5033    22.158197   0.36182409    435.71338   -167.84702   -2624.0974 
   15400   -102285.34   -92454.919    238.71895    20724    226721.89    30.914917   -11.880567    187.13296   -82.507638    435.54586    23.497789    22.153001    0.2646687    435.81053   -145.24558    -2623.625 
   15500   -102368.62    -92427.43    241.40893    20724    226725.92  -0.28786797   -134.33159   -268.16354    401.63154    435.36117    23.502981    22.157896   0.35701278    435.71819   -162.04472   -2634.8384 
   15600   -102258.93   -92437.228    238.50716    20724    226784.59    46.812677   -119.77637   -177.35328    437.56768    435.31028    23.507396    22.162058   0.38246029    435.69274   -156.61297    -2630.401 
   15700   -102245.53    -92397.96    239.13538    20724    226805.75   -37.722191    6.4834877   -130.27939    10.629329    435.36116    23.507119    22.161797   0.35701846    435.71818   -180.40225   -2642.7822 
   15800   -102240.45   -92373.493    239.60616    20724    226769.08      20.1186    -114.3035   -70.838811    245.49811    435.36052    23.505236    22.160022   0.35734157    435.71786   -177.46535   -2676.1908 
   15900   -102208.61   -92371.183    238.88916    20724    226774.53    62.791919    141.45467   -151.91905    198.84014    435.40919    23.504204    22.159049   0.33300329     435.7422   -163.78211   -2694.5258 
   16000   -102331.92   -92364.328    242.04991    20724    226687.02   -104.93676   -22.038858   -95.774193   -196.99724    435.22414    23.504664    22.159483   0.42553182    435.64967   -152.97552   -2707.7076 
   16100   -102230.09   -92362.599    239.61924    20724    226796.53    61.436485    42.268291    157.96528   -15.924115     435.5187    23.502389    22.157338    0.2782482    435.79695   -152.88141   -2716.2811 
   16200   -102243.06   -92363.425    239.91417    20724    226661.68   -93.257436   -253.09589    252.81534   -279.49175     435.1474    23.505423    22.160198   0.46389928     435.6113   -163.73678   -2700.4913 
   16300   -102228.94    -92350.56    239.88359    20724    226906.04    52.435517    171.64544    175.24907   -189.58796    435.46062    23.509631    22.164165   0.30729092    435.76791   -164.64533   -2716.0486 
   16400   -102176.65   -92333.961    239.01682    20724    226790.03   -12.420489    52.280498   -242.85449    153.31253    435.31915    23.507439    22.162098   0.37802739    435.69717   -175.68776   -2722.0555 
   16500   -102250.53   -92362.953    240.10702    20724    226757.92    -13.03028    40.690104   -7.3064319   -72.474512    435.31107    23.505992    22.160735   0.38206346    435.69314   -151.97625   -2718.6149 
   16600    -102311.6   -92339.867    242.15061    20724    226825.51    2.8045304    41.966063   -267.72727     234.1748    435.46614    23.505309    22.160091   0.30453181    435.77067   -146.68905   -2748.1983 
   16700   -102206.69   -92333.588     239.7555    20724    226645.63   -11.774512   -152.04566   -51.116378     167.8385    435.13505    23.504924    22.159728   0.47007496    435.60513   -140.31395    -2766.404 
   16800   -102205.25    -92276.86    241.09797    20724    226963.26   -79.284975   -30.971334   -345.59917    138.71557    435.61407    23.508453    22.163054   0.23056275    435.84464   -140.17363   -2810.5335 
   16900   -102198.76    -92314.54    240.02539    20724     226691.7   -11.742179    36.726726   -33.241273    -38.71199    435.27559    23.503518    22.158402   0.39980304     435.6754   -139.49752   -2786.9669 
   17000   -102100.56   -92274.602    238.61053    20724    226905.15   -9.3975031    44.575122    81.022336   -153.78997    435.40082    23.511198    22.165643   0.33718922    435.73801   -142.74974   -2816.5013 
   17100   -102111.23   -92235.663    239.81538    20724    226813.37    47.603964    13.912383    131.31154   -2.4120348     435.4932     23.50395    22.158809   0.29099841     435.7842   -158.87923   -2846.3094 
   17200      -102226    -92308.65    240.82998    20724    226905.42    34.075122    51.414104    21.998899    28.812361     435.6717    23.503902    22.158765   0.20175012    435.87345   -126.25636   -2805.0342 
   17300    -102188.5   -92290.346    240.36377    20724    226860.32   -65.833152    157.30919   -143.46411   -211.34454    435.47456    23.506886    22.161577    0.3003225    435.77488   -140.40024   -2806.5512 
   17400   -102169.02   -92266.891    240.46025    20724    226860.95    54.545595    140.41053    55.639301   -32.413042    435.36649    23.509835    22.164358   0.35435372    435.72085   -139.18135   -2839.0056 
   17500   -102107.67   -92269.941    238.89645    20724    226838.18   -18.120369    103.97705   -282.67173    124.33358    435.44389    23.506566    22.161276   0.31565333    435.75955   -110.96022   -2862.2349 
   17600   -102204.72   -92280.371    240.99998    20724    227137.14    42.632457   -12.445803   -162.04664    302.38981    435.60126    23.517802    22.171869   0.23697241    435.83823   -122.96994   -2835.6346 
   17700   -102210.01   -92195.549    243.18806    20724    227047.27    14.702134     40.24274   -139.29665    143.16031    435.65766    23.511627    22.166047   0.20877219    435.86643   -127.86276    -2919.167 
   17800   -102170.35   -92222.381     241.5734    20724    227039.66    -29.55567   -94.398703   -186.78896    192.52066    435.54951    23.514152    22.168427   0.26284498    435.81236   -119.70205    -2898.016 
   17900   -102088.11   -92164.066    240.99251    20724    226822.83    2.2945224    67.581606   -161.43944    100.74141    435.43504    23.506009    22.160751   0.32008146    435.75512   -148.32358   -2935.2029 
   18000   -102080.08   -92169.549    240.66434    20724    226904.43   -22.107236    -149.4791    193.29984   -110.14244    435.48318    23.508938    22.163512   0.29600881    435.77919   -129.42719    -2946.725 
   18100   -102096.59   -92136.784    241.86087    20724    226993.56   -83.801353    163.40631   -183.37865   -231.43172    435.49089    23.513347    22.167669   0.29215572    435.78304   -131.69777   -2973.4757 
   18200   -102087.32   -92159.223    241.09102    20724    226920.48   -32.758754    22.568007   0.77424619   -121.61851    435.54624    23.508067    22.162691   0.26448065    435.81072    -125.5443   -2962.2806 
   18300   -102129.69   -92120.349    243.06374    20724    226947.78    61.734624   -82.729083   -71.823875    339.75683    435.60581    23.507874    22.162509   0.23469584     435.8405   -135.29547   -2997.9496 
   18400   -102059.19   -92136.662    240.95571    20724    226880.44   -100.22105    156.06418   -296.48879   -160.23854    435.54171    23.506115    22.160851   0.26674448    435.80846    -113.4646   -2998.0154 
   18500   -102174.17   -92143.703    243.57688    20724    226832.66   -49.628407    56.124886   -223.04938    18.039276     435.5704    23.502866    22.157788   0.25239785     435.8228   -134.47574   -2974.7959 
   18600   -102029.61   -92111.006    240.86046    20724    226686.74   -5.6110929   -101.87278    31.578965    53.460534    435.36287    23.500904    22.155938   0.35616341    435.71904   -127.57354   -3020.4018 
   18700   -102051.28   -92068.477    242.41927    20724    226866.73   -19.151946    99.329962    113.14773   -269.93353    435.54419    23.505338    22.160118   0.26550585    435.80969   -136.50307   -3049.3431 
   18800   -102015.92   -92087.891    241.08935    20724    226891.41   -73.206874    7.1684651   -273.35559    46.566503    435.36067    23.511571    22.165994   0.35726423    435.71794   -123.75287   -3041.8222 
   18900   -102023.02   -92103.797     240.8754    20724    226773.02   0.18756039    50.155812   -37.375202   -12.217929    435.31081    23.506782     22.16148   0.38219419    435.69301   -137.11477   -3019.3532 
   19000   -102010.78   -92077.111    241.22612    20724    226844.45    35.219667    91.712034   -42.934654     56.88162    435.19606    23.513583    22.167891   0.43956852    435.63563   -130.34239   -3055.5669 
   19100   -102024.54    -92082.33    241.43363    20724    226717.29    -50.50907    62.625288    90.262691   -304.41519    435.19093     23.50713    22.161808   0.44213552    435.63306   -135.68655   -3043.2146 
   19200   -101925.38   -91982.328    241.45408    20724    226921.44    54.021305    163.32507    29.022015   -30.283169    435.39952    23.512077    22.166472   0.33783801    435.73736   -159.94605   -3120.7985 
   19300   -102020.85   -91980.245    243.82298    20724    227177.59   -55.442338   -121.66244    102.24185   -146.90642    435.70665    23.517051    22.171161   0.18427602    435.89092   -161.83303   -3108.7823 
   19400    -102010.7   -92006.438    242.94035    20724    226917.04   -44.221405    67.952148   -134.42257    -66.19379    435.38858    23.512145    22.166536   0.34330799    435.73189   -139.08875   -3114.6257 
   19500   -101968.11    -91966.42    242.87811    20724    226954.91   -35.313872   -105.19928    340.15022   -340.89256    435.55795    23.509535    22.164075   0.25862724    435.81657   -167.92556   -3125.9038 
   19600   -101940.96    -91971.88    242.08623    20724    226910.03    88.841793    241.73304    230.46085   -205.66851    435.60852    23.505846    22.160597   0.23334015    435.84186    -147.2715   -3148.3921 
   19700   -101899.31   -91926.804    242.16925    20724    226882.77  -0.15356126   -44.619335   -274.42322    318.58187    435.51843    23.506864    22.161557   0.27838356    435.79682   -143.95322   -3193.1989 
   19800   -101897.72   -91917.337    242.36069    20724    226963.91   -93.049808   -156.67189   -69.569453   -52.908081    435.57683    23.509492    22.164034   0.24918481    435.82602   -138.41878   -3202.8128 
   19900   -101870.93   -91852.999    243.27237    20724    226872.93    10.635454    144.28371   -15.415952   -96.961402    435.32981    23.511447    22.165877   0.37269475    435.70251   -152.03801   -3263.4277 
   20000   -101881.49   -91852.397    243.54347    20724    226954.78   -14.064452   -83.691474   -208.49427    249.99239    435.58855    23.508702     22.16329    0.2433231    435.83188   -129.87308   -3284.5937 
   20100   -101907.17   -91917.509    242.58591    20724    226920.64    15.373291   -131.48798    8.0977116    169.51014    435.33961    23.513654    22.167958   0.36779728     435.7074   -126.86139   -3225.4129 
   20200   -101929.27   -91973.209       241.77    20724    226632.08   -26.756179   -115.30685   -11.984496    47.022812    435.07116    23.505948    22.160693   0.50201923    435.57318   -110.89835   -3193.5415 
   20300   -101931.55   -91937.001    242.70466    20724    226639.15    27.570801    -152.4516   -92.166167    327.33016    435.10509    23.505398    22.160174   0.48505518    435.59014   -126.17185   -3217.5213 
   20400   -101959.69   -91907.065      244.115    20724    226620.57   -109.24467     21.31669   -28.888199   -320.16249     435.0073    23.507076    22.161756   0.53394976    435.54125   -139.22374   -3230.3455 
   20500    -101784.3   -91908.153    239.82948    20724    226595.53    58.996276   -54.069781    161.49138     69.56723    434.96924    23.506805    22.161501   0.55298026    435.52222   -149.10715   -3228.5232 
   20600   -101843.63   -91929.892    240.74227    20724    226514.59     40.39242     161.7431    -199.0838    158.51796    434.98417    23.502203    22.157163   0.54551502    435.52968   -149.45613   -3206.8119 
   20700   -101872.45   -91938.206    241.24006    20724     226488.2    62.026112   -59.842307    103.91792    142.00273     434.9632    23.501401    22.156406    0.5560009     435.5192   -132.94954   -3221.2762 
   20800   -101832.37   -91920.483    240.69725    20724    226121.71    10.388241   -7.0673747    183.89503   -145.66293    434.62074    23.491628    22.147193   0.72722826    435.34797   -135.80753   -3242.5748 
   20900   -101873.73   -91829.454    243.91215    20724    226570.52     -54.3738   -73.837333    64.446793   -153.73086    434.91881    23.506871    22.161563    0.5781928    435.49701    -153.2795   -3302.3852 
   21000   -101771.23   -91858.208    240.72483    20724    226346.63    29.722103    65.650619     -182.897    206.41269    434.76748    23.499342    22.154465   0.65386222    435.42134   -140.92032   -3298.0932 
   21100   -101878.72    -91816.58    244.34587    20724    226343.15   -52.879898    -67.30072   -123.84085    32.501873    434.93196    23.494718    22.150106    0.5716188    435.50358   -150.35516   -3326.5995 
   21200   -101808.83   -91801.523    243.01432    20724    226348.51    15.954644   -87.619841    27.296557    108.18721    434.80643    23.498387    22.153565   0.63438559    435.44081   -138.44329   -3358.4699 
   21300    -101694.4   -91740.021    241.72915    20724    226532.31    164.55158     172.3286     201.6253    119.70083    434.89675    23.505485    22.160257   0.58922531    435.48597    -154.8472   -3405.9425 
   21400   -101770.22   -91732.165    243.76113    20724     226427.2   -133.22152   -7.9189888   -250.41691   -141.32867    434.88649    23.500308    22.155376   0.59435541    435.48084   -120.46494   -3439.2407 
   21500   -101801.22   -91712.016    245.00322    20724     226585.4   -46.052673   -40.034318    32.828953   -130.95266    434.88674    23.508509    22.163108   0.59422793    435.48097   -114.62913   -3467.2995 
   21600   -101780.33   -91795.376    242.47153    20724    226214.04    -74.42653   -120.43124    47.288493   -150.13684    434.41052    23.502108    22.157073   0.83234214    435.24286   -127.71054   -3380.9335 
   21700    -101741.8   -91746.661    242.71888    20724    226485.14    65.788111   -17.457118    104.91961    109.90184    434.64954     23.50972    22.164249   0.71282926    435.36237   -137.31218    -3420.497 
   21800   -101693.06   -91721.723    242.14104    20724    226537.66    10.362723   -30.286082    182.32155    -120.9473    434.52557      23.5158    22.169981     0.774816    435.30038   -119.27231   -3459.3676 
   21900   -101701.06    -91726.42    242.22119    20724     226319.9   -29.792327   -126.74192    103.27832   -65.913389    434.55531     23.50369    22.158564   0.75994301    435.31526   -136.04304   -3442.2445 
   22000   -101684.89   -91717.794    242.03788    20724    226321.03   -41.199714   -188.26679    5.7772265    58.890418    434.35428    23.509187    22.163747   0.86046176    435.21474   -133.00603   -3452.0988 
   22100   -101681.94   -91643.014    243.78228    20724    226199.84   -65.022822    50.244825   -206.64059   -38.672705    434.17772    23.507671    22.162317   0.94874088    435.12646   -151.18924   -3515.7696 
   22200   -101621.54   -91628.182    242.67577    20724       226405    52.007407   -97.382296    -47.12094    300.52546    434.45486    23.510826    22.165292   0.81016808    435.26503   -127.73964   -3551.3632 
   22300   -101624.37   -91606.536    243.27014    20724    226198.48     -53.0197   -198.13272     243.5376   -204.46398    434.27154    23.505061    22.159857   0.90182823    435.17337    -144.3586   -3558.6822 
   22400   -101566.95   -91567.135    242.83248    20724     226227.5   -19.615058   -113.63509    162.65521   -107.86529    434.19621    23.508607      22.1632   0.93949426    435.13571   -155.75493   -3587.7078 
   22500   -101609.11    -91560.55     244.0163    20724     226232.8    38.320453     82.69556    72.919533   -40.653733    434.20034     23.50877    22.163354   0.93742785    435.13777   -151.57264   -3603.9707 
   22600   -101540.98     -91595.2    241.52038    20724    226142.53    63.473313   -66.049664    219.42613    37.043472    434.12377    23.506153    22.160886   0.97571339    435.09949   -126.99809   -3596.0312 
   22700   -101587.64   -91570.122    243.26229    20724    226239.18    28.222344   -56.479343    243.77388    -102.6275    434.28118    23.506914    22.161604   0.89700796    435.17819   -142.53363   -3601.8416 
   22800   -101657.67   -91624.388    243.64512    20724    226191.47   -52.921537    91.486856   -88.296567    -161.9549    434.21126    23.506328    22.161051   0.93197028    435.14323   -120.07277   -3570.9422 
   22900   -101609.42   -91555.984    244.13456    20724     226419.2   -70.820605   0.49874748   -85.494975   -127.46559    434.26521    23.516697    22.170827   0.90499468    435.17021   -107.12575    -3646.607 
   23000   -101423.83   -91548.028    239.82098    20724    226290.03    63.999376    46.098815   -208.90129    354.80061    434.07075    23.515253    22.169466     1.002226    435.07297   -116.91932   -3653.5534 
   23100   -101510.87   -91569.436    241.41482    20724    226400.52    26.634659    86.351955   -142.14011    135.69213    434.54511    23.508152    22.162771   0.76504383    435.31016   -106.56704   -3639.6636 
   23200   -101609.99   -91553.766    244.20218    20724    226485.88    78.358467     29.45473    81.379975    124.24069    434.39634    23.516609    22.170744   0.83942756    435.23577    -122.8168   -3640.7351 
   23300   -101575.43   -91485.231    245.02724    20724    226186.99   -11.409846    124.84472   -19.407976   -139.66628    434.01797    23.511329    22.165766    1.0286174    435.04658   -136.95843    -3700.579 
   23400   -101543.03   -91485.768    244.22761    20724    226300.86    26.120591    5.6457817     230.4314   -157.71541    434.15689    23.513483    22.167797    0.9591558    435.11604   -146.88746   -3688.5502 
   23500   -101616.44   -91497.424    245.72713    20724    226116.58   -16.905619     20.55486     74.37306   -145.64478    434.37877    23.497904     22.15311   0.84821727    435.22698    -160.9436   -3669.9651 
   23600   -101542.28   -91512.325    243.56443    20724    226379.67 0.00011512197    43.110901   -135.31724    92.206689    434.46389    23.509267    22.163822   0.80565403    435.26955   -117.53835    -3689.473 
   23700    -101597.5   -91512.335    244.90516    20724    226384.91    76.278692    13.194517    -8.405916    224.04747    434.35987    23.512354    22.166732   0.85766746    435.21753   -133.86864    -3680.164 
   23800   -101590.78   -91455.024    246.13358    20724    226563.73   -51.795966    106.96315   -120.52428   -141.82677    434.88942    23.507313     22.16198   0.59288795    435.48231   -146.68271   -3715.4452 
   23900   -101610.79   -91486.897    245.84557    20724    226330.59    32.188288  -0.51336383   -194.20489    291.28312     434.7152    23.499923    22.155013   0.68000222     435.3952   -125.93575   -3714.3345 
   24000   -101567.76    -91458.96    245.47915    20724    226152.91   -22.440022   -263.93394    199.13672    -2.522846    434.33858    23.500879    22.155914   0.86831192    435.20689   -160.13742   -3712.9121 
   24100   -101533.73   -91512.541    243.35141    20724    226346.19    113.31058    53.045116    177.67547    109.21115    434.39752    23.509324    22.163876   0.83884169    435.23636   -139.53863   -3680.7811 
   24200   -101555.48   -91488.676    244.45932    20724    226201.49    24.907377   -85.929808     178.6385   -17.986557    434.28122    23.504955    22.159757   0.89698854    435.17821   -143.97999   -3701.3328 
   24300   -101562.39   -91457.243    245.39036    20724    226305.86   -58.676152   -33.457334    -137.1191   -5.4520273    434.43618    23.506184    22.160915   0.81950903    435.25569   -126.35604    -3746.406 
   24400   -101584.69   -91464.446    245.75683    20724    226376.57    -41.46613   -6.9019487   -92.031985   -25.464454    434.55407    23.506666     22.16137   0.76056302    435.31464   -146.21731   -3717.8019 
   24500   -101546.52   -91431.035    245.64148    20724     226258.2    67.406663     -45.7095    -263.5298    511.45929    434.31984    23.506856    22.161549   0.87768181    435.19752   -127.97422   -3780.6286 
   24600   -101618.21   -91402.927    248.06484    20724    226358.01   -50.985712   -82.153155    20.293121   -91.097103    434.34871    23.511259      22.1657   0.86324672    435.21195   -148.61185   -3780.5135 
   24700   -101497.93   -91430.929    244.46412    20724    226379.85    71.656366    12.306551    -97.39813    300.06068    434.30118    23.513679    22.167982   0.88701243    435.18819   -140.32733   -3764.6384 
   24800   -101450.83   -91385.682     244.4191    20724    226536.67    123.74616    182.93458   -306.94905    495.25295    434.67781     23.51163     22.16605   0.69869726     435.3765   -153.54324   -3796.7901 
   24900   -101513.07   -91399.207    245.60207    20724    226546.95   -14.113907   -146.18417    11.514601    92.327853    434.57925    23.514829    22.169066   0.74797725    435.32722   -143.06054   -3788.0579 
   25000   -101523.76   -91374.178    246.46944    20724    226791.53   -61.473827   -15.669247   -35.550336    -133.2019    434.94009    23.517758    22.171827   0.56755655    435.50764   -135.90555    -3811.565 
   25100   -101492.25   -91376.521    245.64726    20724    226771.06   -54.355779    54.544337   -61.918837   -155.69284    435.03885    23.514027     22.16831   0.51817625    435.55702   -127.84242   -3819.8687 
   25200   -101510.67   -91357.773    246.54982    20724    226767.73    12.349674   -30.280516   -48.193906    115.52345    435.03601    23.513931    22.168219   0.51959432    435.55561    -114.0071   -3856.9105 
   25300   -101466.23   -91307.761    246.68515    20724    226634.95   -62.788049    177.75017   -177.12872    -188.9856    434.88189    23.511211    22.165655   0.59665478    435.47855   -126.55244   -3894.5376 
   25400    -101446.4   -91296.825    246.46924    20724    226749.48    1.0421157    32.692418   -230.80005    201.23398    434.99283    23.514151    22.168427   0.54118319    435.53402   -130.85045   -3901.4484 
   25500   -101494.07   -91307.977      247.356    20724    226717.33    34.507327   -56.118636    88.459102    71.181514    434.99354    23.512466    22.166838   0.54082972    435.53437   -126.33128   -3900.1499 
   25600   -101455.56   -91274.363    247.23721    20724    226677.63   -101.36286   -164.68086   -106.91833   -32.489393    434.98546    23.510625    22.165102    0.5448692    435.53033   -146.88267   -3909.0089 
   25700    -101376.2    -91217.84    246.68254    20724    226707.91   -7.3000201   -188.14564     9.815715    156.42987    435.02283    23.511185    22.165631   0.52618344    435.54902   -158.83071   -3959.4439 
   25800    -101339.1   -91214.937    245.85222    20724    226725.18   -18.089054    7.8895082     52.45289   -114.60956    434.94264    23.514248    22.168518   0.56628144    435.50892    -171.7985   -3948.1936 
   25900   -101349.37   -91238.562    245.52781    20724    226931.26    30.346388    26.000999    348.77599   -283.73782    434.80894    23.528549       22.182   0.63312763    435.44207   -140.90155   -3952.8406 
   26000   -101464.73   -91257.231    247.87573    20724    226590.89   -1.6777899    192.67742   -26.560997    -171.1498    434.52526    23.518571    22.172594   0.77497165    435.30023   -155.78871   -3930.5373 
   26100   -101281.62   -91176.296    245.39456    20724    226794.23   -11.631048   -102.64075   -77.909693     145.6573    434.67647    23.525028    22.178681   0.69936296    435.37584   -182.48985   -3977.5371 
   26200   -101345.99   -91209.306     246.1562    20724    226630.26   -58.045503    38.499506   -43.555496   -169.08052    434.54599    23.520053    22.173991   0.76460484     435.3106   -177.38911    -3951.579 
   26300   -101446.51     -91192.2    249.01247    20724    226524.33   -80.246797   -82.415963    95.098077   -253.42251    434.40121    23.518473    22.172502   0.83699676     435.2382   -180.23888   -3973.0374 
   26400    -101294.5    -91194.02    245.27712    20724    226594.84    16.329403    54.931657    18.675303   -24.618751    434.54231    23.518314    22.172352   0.76644466    435.30876   -153.63842   -3998.5254 
   26500   -101412.77    -91193.98    248.14993    20724    226672.61     25.95203   -137.21117   -52.326109    267.39337    434.47555    23.524157     22.17786   0.79982335    435.27538   -172.08844   -3980.6028 
   26600   -101357.17   -91159.769    247.63048    20724    226535.85   -24.974016    36.199432    120.14619   -231.26768    434.51861    23.515894     22.17007   0.77829571     435.2969   -188.95631   -4001.3019 
   26700   -101416.97   -91105.963    250.38941    20724    226648.48   -43.955655   -133.35121    173.88651   -172.40227    434.70073    23.516811    22.170935   0.68723366    435.38797   -183.91688    -4057.132 
   26800   -101373.75   -91109.388    249.25654    20724    226470.89    1.7570609    55.370672    -76.45227     26.35278    434.36552    23.516665    22.170797   0.85483994    435.22036   -173.01864   -4072.4883 
   26900   -101290.29   -91072.491    248.12587    20724    226517.08   -54.504165   -65.578102   -217.28707    119.35268     434.3703    23.518934    22.172936   0.85245182    435.22275   -200.88109   -4077.2536 
   27000   -101267.08   -91084.227    247.27736    20724    226450.37    56.256593   -8.8122408    28.772303    148.80972    434.41098    23.514369    22.168632   0.83211114    435.24309   -186.68746   -4086.7669 
   27100   -101269.21   -91051.816    248.11618    20724    226677.81   -62.980306   -67.762433   -65.531279   -55.647206    434.82089    23.515083    22.169305   0.62715573    435.44804   -183.56516   -4111.1803 
   27200   -101217.37   -91043.134    247.06814    20724    226448.09    74.807012    97.221405   -88.877865     216.0775    434.56965    23.509958    22.164474   0.75277417    435.32243   -177.50705   -4138.7845 
   27300   -101313.46   -91058.053    249.03921    20724    226552.37   -95.753045   -205.36516    45.685644   -127.57962    434.63722    23.513543    22.167853   0.71899072    435.35621   -149.64089   -4143.2304 
   27400   -101175.49    -90986.19    247.43389    20724    226549.61    103.80586    22.992527   -22.080803    310.50586    434.70948    23.511445    22.165875   0.68286223    435.39234   -174.49829   -4199.7203 
   27500   -101241.53    -90992.65    248.88058    20724    226590.02   -20.080376   -190.44103   -82.971608    213.17151    434.65778     23.51494     22.16917   0.70870914    435.36649   -163.99406   -4200.1643 
   27600   -101188.44   -90985.442    247.76653    20724    226527.89   -84.894891   -83.212659   -89.186025   -82.285987    434.65673    23.511744    22.166158   0.70923558    435.36596   -172.24665   -4198.1065 
   27700   -101222.55   -90963.463    249.12863    20724    226480.07   -23.264073    -142.6767    50.647939    22.236546    434.42854    23.515436    22.169638    0.8233277    435.25187   -164.17979   -4234.3804 
   27800   -101221.06   -90981.861    248.64549    20724    226635.35   -28.782049    -20.06544   -25.615782   -40.664926     434.3092    23.526728    22.180284   0.88299793     435.1922   -156.27078   -4220.3151 
   27900   -101244.64    -90995.89    248.87765    20724    226689.75   -4.5255364    92.150894    -161.0315    55.303996    434.63179    23.520817    22.174712   0.72170461     435.3535   -132.13811   -4232.9667 
   28000   -101222.28   -90946.093    249.54369    20724     226655.7   -67.749545   -54.056895   -216.56578    67.374033     434.4959    23.522729    22.176514   0.78965238    435.28555   -126.60686   -4286.8668 
   28100   -101258.21   -90923.414    250.96701    20724    226666.12   -59.380695     59.60748    72.820462   -310.57003    434.48965    23.523438    22.177182   0.79277374    435.28243   -144.83144    -4292.298 
   28200   -101129.88   -90945.026    247.32582    20724    226520.94    36.890223    52.896007   -78.205066    135.97973    434.44107    23.517218    22.171319   0.81706543    435.25813   -155.90399   -4269.0948 
   28300   -101123.47   -90951.959    247.00199    20724    226536.87   -17.702916     -11.1612   -81.036806    39.089258     434.6674    23.511922    22.166325   0.70390147     435.3713   -139.35945   -4276.7581 
   28400    -101148.8   -90900.867    248.85768    20724    226724.22    17.698009    141.29633    36.449438   -124.65174    434.78612     23.51843    22.172461   0.64453849    435.43066   -138.44364   -4324.5837 
   28500   -101109.67   -90946.417    246.80124    20724    226454.01    26.383127   -50.907634    28.899813     101.1572      434.431    23.514016      22.1683   0.82209791     435.2531   -102.01777   -4325.2258 
   28600   -101212.22   -90928.907    249.71693    20724    226438.96   -74.524972   -24.957183       31.876   -230.49373    434.16192     23.52052    22.174432    0.9566382    435.11856   -111.01134   -4332.1299 
   28700      -101073   -90938.067    246.11363    20724    226327.77     100.1973   -63.398738    56.417685    307.57295     434.2403    23.512623    22.166986   0.91745059    435.15775   -108.03368     -4336.36 
   28800   -101157.81   -90942.083    248.07559    20724    226247.87    -43.76671   -181.59941   -297.51625    347.81553     434.2081    23.509344    22.163895   0.93355225    435.14165   -104.13342   -4333.5147 
   28900   -101099.19   -90924.032    247.09047    20724    225961.24    39.415668    -1.653684    74.598516    45.302173    433.99425    23.500235    22.155307    1.0404773    435.03472   -126.51054   -4343.1841 
   29000   -101057.34   -90895.374    246.77012    20724    226179.83   -31.719166    34.074617   -13.759986   -115.47213     434.3596    23.501709    22.156697   0.85779806     435.2174   -117.98932   -4370.8755 
   29100   -101093.08   -90877.411    248.07432    20724    226352.77   -48.275153   -218.67742    177.37015   -103.51819    434.44434    23.508399    22.163004   0.81543127    435.25977   -121.26873   -4381.6888 
   29200   -101105.26   -90896.697    247.90176    20724    226239.54   -10.923045    1.3688596    109.18215   -143.32014    434.56996    23.499121    22.154257   0.75261939    435.32258   -104.38681   -4385.4561 
   29300   -101213.22    -90892.92    250.61512    20724    226240.05   -73.464836    40.846543   -308.23339    46.992334    434.41794    23.503259    22.158158   0.82863219    435.24657    -112.2936   -4381.9645 
   29400    -101077.2   -90923.862    246.56066    20724    226001.14    47.566208    226.66027    129.21173   -213.17338    434.16828    23.497599    22.152822   0.95345864    435.12174   -108.72949   -4365.5855 
   29500   -101145.84   -90905.103      248.683    20724    226183.93   -42.468869    46.822945   -342.18429    167.95474    434.11743    23.508476    22.163076   0.97888528    435.09631   -97.107586   -4390.3573 
   29600   -101024.73   -90885.446     246.2194    20724    226188.13    22.790304    3.4029286   -175.29617    240.26415    434.16396    23.507434    22.162095   0.95562235    435.11958   -101.65559    -4408.693 
   29700   -101077.38   -90866.924    247.94774    20724    226222.64    8.5645095   -134.25309    63.952456     95.99416    434.13801     23.50993    22.164447   0.96859507     435.1066   -115.77946   -4412.0002 
   29800   -101176.48    -90885.45     249.9043    20724    226093.49     10.89559    207.27178   -156.89997   -17.685035     433.9789    23.507527    22.162182    1.0481511    435.02705   -123.17504   -4392.2426 
   29900   -101130.93   -90876.245     249.0216    20724    225996.79    52.564132   -79.900999    171.74809    65.845303    433.90117    23.504604    22.159426    1.0870164    434.98818   -129.15564   -4400.0429 
   30000   -101099.68   -90889.487    247.94116    20724    226007.92    63.086635   -51.282701    225.76518    14.777424    433.58007    23.513885    22.168176    1.2475644    434.82764    -151.0219   -4366.1511 
   30100   -101065.96   -90866.421    247.68253    20724    225854.56   -5.6131232    83.271997    116.85796   -216.96933     433.4227    23.510173    22.164676    1.3262478    434.74895   -149.01893    -4393.232 
   30200   -101122.84   -90892.268    248.43614    20724    226145.11    28.219517    117.61514   -40.844377    7.8877894    433.70437     23.51765    22.171725    1.1854175    434.88978   -142.27799   -4367.7505 
   30300   -101136.66   -90944.544    247.50232    20724    226126.54    3.2477895    -24.52245   -46.278336    80.544154    433.66795    23.517671    22.171746    1.2036265    434.87157   -126.96361   -4332.7103 
   30400   -101097.31   -90897.563    247.68752    20724    226020.49   -60.931654   -109.46826    86.715402    -160.0421    433.91616    23.505431    22.160205     1.079522    434.99568   -117.71877    -4388.264 
   30500   -101197.98   -90949.064    248.88156    20724    226151.75   -23.893289    72.550622   -96.989407   -47.241082    433.83864    23.514355    22.168619    1.1182776    434.95692   -116.99602   -4338.6159 
   30600   -101105.72   -90899.163    247.85297    20724    226046.06    108.75906    278.47795   -142.47818    190.27741    433.69722    23.512693    22.167052    1.1889913    434.88621    -120.3529    -4393.217 
   30700   -101119.91   -90882.989    248.59023    20724    225865.24    23.750604   -60.317629    201.81617   -70.246732    433.62545    23.505232    22.160018    1.2248775    434.85032   -126.39286   -4406.9867 
   30800   -101079.21   -90883.323    247.59394    20724    225829.57   -25.949593     52.95393   -276.56689    145.76419    433.86882    23.496783    22.152052    1.1031896    434.97201   -132.41892   -4399.8701 
   30900   -101064.97   -90853.208    247.97944    20724    226008.75     87.25241     114.0749    42.141722    105.54061    433.89221    23.505469    22.160241    1.0914929    434.98371   -146.15038   -4420.3252 
   31000   -101107.46   -90854.696    248.97495    20724    226057.86    6.5873438   -132.41217    104.64404    47.530154    433.60152    23.515901    22.170076    1.2368383    434.83836   -120.88345   -4438.2108 
   31100   -101132.84   -90858.266    249.50475    20724    225995.48    -42.95007    116.56808   -112.79466   -132.62363    433.78729    23.507621     22.16227    1.1439538    434.93125   -132.02007   -4424.3807 
   31200   -101152.86   -90818.309    250.96111    20724    225827.57   -45.170735    31.761053    144.61745   -311.89071    433.59855    23.504001    22.158857     1.238326    434.83687   -171.90714   -4430.5138 
   31300   -101037.44   -90790.074    248.84404    20724    225723.93   -87.022345   -101.23502   -92.963457   -66.868559    433.48417    23.501706    22.156694    1.2955135    434.77969   -162.24186   -4469.0242 
   31400   -101010.12   -90766.945    248.74223    20724    225966.39     -21.4953    90.454455   -440.79859    285.85824    433.76016    23.506843    22.161537    1.1575199    434.91768   -140.55937   -4510.8267 
   31500   -101017.16    -90785.42    248.46447    20724    225988.95    28.319812   -147.50567   -42.450702    274.91581    433.58916    23.512651    22.167013    1.2430179    434.83218   -158.83159   -4476.3189 
   31600   -101097.15   -90758.406    251.06291    20724    225957.01    -63.28535   -55.541022    79.744089   -214.05912     433.5883    23.511013    22.165469    1.2434501    434.83175   -163.15744   -4500.1542 
   31700   -101041.44    -90773.27     249.3491    20724    226133.46    35.071768   -32.094321       200.56   -63.250379    433.73369    23.516249    22.170405    1.1707565    434.90444   -149.12594   -4499.4712 
   31800   -101022.58   -90769.422    248.98467    20724    226035.72   -16.781474   -95.982972   -90.391383    136.02993    433.39726     23.52029    22.174214    1.3389699    434.73623   -148.50537   -4503.8619 
   31900    -101088.2   -90745.913      251.149    20724    226115.77    52.584496   -100.03013    55.908135    201.87548    433.57165    23.519723     22.17368    1.2517771    434.82342   -155.78544     -4524.16 
   32000   -100991.94   -90763.735    248.37855    20724    226086.09    14.189275    49.354628   -190.33575    183.54894    433.50348    23.520029    22.173968    1.2858598    434.78934   -153.73003    -4506.521 
   32100   -101091.13    -90787.35     250.2138    20724    225903.41   -93.566979   -69.542828   -224.95069    13.792579     433.6428    23.506747    22.161447     1.216198      434.859   -123.29208   -4515.5025 
   32200   -101039.07   -90705.767    250.93073    20724    226102.61     63.16862    -64.96985    42.076236    212.39947    433.53226    23.520107    22.174042      1.27147    434.80373   -162.13965   -4561.4927 
   32300   -101052.96   -90735.777    250.53929    20724    225999.96    10.959812   -55.481205    52.815741    35.544899    433.51669     23.51519    22.169406    1.2792533    434.79595   -146.58745   -4549.2556 
   32400   -100964.42   -90740.906    248.26479    20724       226027     82.42197    201.63812    43.762006    1.8657806    433.42788    23.519005    22.173003    1.3236603    434.75154   -127.04292   -4566.3009 
   32500   -101013.72   -90728.757    249.75691    20724     225927.7    17.760572    45.327785    299.25838   -291.30445    433.45271    23.513165    22.167497    1.3112442    434.76396   -130.94882   -4576.3094 
   32600   -101001.49   -90725.036    249.55033    20724    226030.63    12.089476    46.408352   -41.459047    31.319122    433.66952    23.512641    22.167003    1.2028406    434.87236    -130.9503   -4579.4356 
   32700    -101015.1   -90707.672    250.30239    20724     225947.9    14.185087    204.52146   -192.37025    30.404046      433.681    23.508026    22.162653    1.1971019     434.8781   -148.63363   -4582.0861 
   32800   -100911.38   -90676.381    248.54357    20724     225956.6    32.019076    102.60571   -224.91032    218.36184    433.53367    23.512473    22.166845    1.2707639    434.80444   -152.99098   -4607.5563 
   32900   -100941.91   -90680.272    249.19054    20724    225745.06    -62.85927    -107.5665    10.944851   -91.956166     433.4752    23.503049     22.15796          1.3     434.7752   -180.98934   -4581.3472 
   33000   -100876.48   -90678.142    247.65334    20724    226073.86   -3.1795586    38.274667    146.54568   -194.35902    433.75229    23.512646    22.167007    1.1614535    434.91375   -192.47554   -4565.0766 
   33100    -100968.2   -90677.807    249.88871    20724    225777.51   -5.5655498   -66.976796    61.362907    -11.08276    433.37078     23.50757    22.162223    1.3522084    434.72299   -172.03203   -4596.3099 
   33200   -101008.29   -90679.815     250.8136    20724    225926.24   -4.0558281    22.149864    23.253985   -57.571334    433.42375    23.513875    22.168166    1.3257241    434.74948   -148.06118   -4616.3516 
   33300   -100974.62   -90643.736    250.87209    20724    225839.47   -44.046194    55.530161   -76.834172   -110.83457    433.18969    23.515709    22.169896    1.4427534    434.63245    -140.9224   -4660.6458 
   33400    -100830.2   -90650.005    247.21282    20724    225805.54    35.026219    98.739198    48.309203   -41.969744    433.22548    23.512971    22.167314     1.424858    434.65034   -138.81905   -4657.8855 
   33500   -100878.29   -90639.335     248.6397    20724    225846.01    7.4079541    68.868984   -255.06651    208.42139    433.49234    23.507839    22.162476    1.2914279    434.78377   -147.08399    -4659.424 
[...]
  491800   -95799.688   -84208.599     281.4745    20724    221079.21   -109.13903    -161.0174   -135.75357   -30.646122    422.98502    23.545541     22.19802    6.5450891    429.53011    5440.5549   -23928.619 
  491900   -95749.948    -84226.73    279.82634    20724    220861.62   -3.4022948    16.186164   -58.656762    32.263713    423.37745    23.523042    22.176809    6.3488732    429.72633    5471.8415   -23956.184 
  492000   -95823.545   -84243.511    281.20602    20724    220967.97   -56.099462   -92.010232   -159.13172    82.843565    423.73526    23.518769     22.17278     6.169968    429.90523    5463.8475   -23927.665 
  492100   -95760.151   -84235.787    279.85418    20724    221019.85    51.628155   -67.844785     89.09732    133.63193    423.82653    23.518996    22.172995     6.124336    429.95086    5457.7939   -23933.122 
  492200   -95790.556    -84161.19    282.40402    20724    220891.68   -4.0280806    -172.3016    95.679579     64.53778    423.89946    23.510154    22.164658    6.0878724    429.98733     5445.647   -23998.915 
  492300   -95674.167     -84149.4    279.86395    20724    220972.41   -2.3479012    -108.5689    38.737853    62.787348    424.00258     23.51159    22.166012    6.0363118    430.03889    5461.9414   -24025.531 
  492400   -95876.855   -84164.417    284.42131    20724    221273.27   -7.3565328    194.22055    -304.6209    88.330746    424.08455    23.525316    22.178953    5.9953239    430.07988    5464.8715    -24005.04 
  492500   -95762.311   -84180.027    281.26068    20724    220925.52    18.185346    83.625487    216.22804   -245.29749    423.71625    23.517037    22.171147     6.179473    429.89573    5468.4416   -24008.972 
  492600   -95884.741   -84216.755    283.34185    20724    220793.28   -104.10412  0.074534943    -238.3209   -74.065995    423.87206    23.505676    22.160437    6.1015707    429.97363    5455.1589   -23957.496 
  492700   -95702.385   -84229.258    278.60995    20724    220588.58    74.451856   -101.08065    226.15756    98.278654    423.51224    23.504756    22.159569     6.281481    429.79372    5454.4472   -23960.361 
  492800   -95830.193   -84208.692    282.21302    20724    220838.47   -4.3519449   -18.789438    292.39382   -286.66021    423.79613    23.510187     22.16469    6.1395373    429.93566    5462.6468   -23980.135 
  492900   -95754.512   -84175.341    281.18508    20724    220959.43    122.00564    211.71371    25.668327    128.63488    424.01908    23.510441     22.16493    6.0280587    430.04714    5458.6355   -24015.471 
  493000   -95817.864    -84177.01    282.68297    20724     220988.3   -95.720459   -122.48265   -171.52261    6.8438796    424.12807    23.508956    22.163529    5.9735626    430.10164    5446.9324   -23991.313 
  493100   -95800.708   -84168.334    282.47706    20724    221233.27    114.29274    61.759384    161.42009    119.69875     424.3936    23.514623    22.168872    5.8407984     430.2344    5460.3908   -24015.494 
  493200    -95860.64   -84154.931     284.2579    20724    221162.12   -47.487927   -70.326595   -146.65553    74.518342    424.38809    23.510994    22.165451    5.8435546    430.23165    5468.4162   -24034.946 
  493300   -95826.383    -84177.34    282.88183    20724     221220.1     57.33786    54.397836    134.55012   -16.934377    424.36572    23.514696     22.16894     5.854742    430.22046    5463.2992   -24010.143 
  493400   -95813.486   -84184.359    282.39819    20724    221429.18   -29.902281    -89.82033     114.9068   -114.79332      424.247    23.529096    22.182517    5.9140984     430.1611    5469.8386   -24002.399 
  493500   -95789.695   -84218.556    280.99003    20724    221341.31    21.480658   -36.521138    314.82927   -213.86615    424.25552    23.524191    22.177892    5.9098424    430.16536    5471.9025    -23975.42 
  493600   -95698.945   -84160.303    280.20088    20724    221407.02   -23.359102     71.82331   -20.090802   -121.80981    424.52911    23.520101    22.174036    5.7730473    430.30215    5458.4223   -24016.322 
  493700   -95801.314   -84224.546    281.12673    20724    221365.06    60.099189    112.21422   -212.75081    280.83416    424.70761    23.512929    22.167275    5.6837968     430.3914    5492.8338   -23992.968 
  493800    -95790.96   -84223.194    280.90814    20724    221395.26    40.986481   -192.78499    -76.00363    391.74806    424.67763    23.515363    22.169569    5.6987864    430.37641    5493.7972   -23995.903 
  493900   -95832.901   -84247.749    281.33034    20724    221609.59    25.797674    255.21924   -182.67958     4.853358    424.75726    23.524537    22.178219    5.6589696    430.41623    5512.7341   -23983.854 
  494000   -95793.472   -84234.132    280.70353    20724    221424.88   -46.997501   -201.88831   -21.829265    82.725076    424.82727    23.512794    22.167147    5.6239668    430.45123    5506.7376   -23997.239 
  494100   -95838.833   -84231.112    281.87837    20724    221254.14    82.714438    -34.57107   -16.608149    299.32253     424.8387     23.50341    22.158301    5.6182476    430.45695     5490.684   -23999.426 
  494200   -95948.046    -84229.89    284.56014    20724    221366.28   -20.541199    126.33465   -247.70041    59.742164    424.87638    23.508323    22.162933     5.599409    430.47579    5498.3835   -24001.757 
  494300   -95820.306   -84258.364     280.7667    20724    221146.76   -163.65587   -2.2862819   -541.10813    52.426789    424.57437    23.505019    22.159818    5.7504144    430.32479    5505.9418   -23981.685 
  494400   -95789.815   -84239.586    280.48225    20724    221241.06    30.170572    167.04132    46.722415   -123.25201    424.67835    23.507153    22.161829    5.6984272    430.37677    5515.7465   -24017.604 
  494500   -95890.042   -84274.908    282.05841    20724     221645.8   -36.759787    49.167463   -89.343544    -70.10328    424.65633    23.529254    22.182666    5.7094348    430.36577    5508.1409   -23961.008 
  494600   -95840.801   -84300.136       280.25    20724    221337.52   -68.814081   -176.15117    -21.99025     -8.30082    424.54621    23.515935    22.170109    5.7644955     430.3107    5534.2146   -23972.658 
  494700   -95931.526   -84258.869    283.45527    20724    221566.47     99.35477   -47.956737   -90.598155     436.6192    424.57357    23.527336    22.180857     5.750816    430.32438    5525.2401   -24007.651 
  494800   -95884.006   -84262.585    282.21106    20724    221606.12   -76.285263     34.06368   -611.73714    348.81767    424.79436    23.523326    22.177076    5.6404223    430.43478    5520.8106   -23987.462 
  494900   -95922.115   -84250.238    283.43632    20724    221574.76   -98.602378    -94.25463    108.59027   -310.14278     425.2029    23.510358    22.164851    5.4361487    430.63905    5527.1153    -24010.07 
  495000   -95714.593   -84200.844     279.5964    20724    221768.51   -25.083733    5.8993355   -204.91011    123.75958     425.2837    23.518401    22.172433     5.395749    430.67945    5524.3606   -24052.536 
  495100   -95906.419   -84224.966    283.66888    20724     222063.1   -77.305923   -16.994275    3.2049186   -218.12841    425.66686    23.523422    22.177167     5.204171    430.87103    5516.4455   -24013.688 
  495200   -95952.414   -84238.247    284.46329    20724    221814.83   -89.106431   -109.10238   -6.1078935   -152.10902    425.68554    23.509753     22.16428    5.1948288    430.88037      5519.37   -24011.979 
  495300   -95821.111    -84211.71    281.91919    20724    221690.82   -66.103158   -142.26662   -28.900069   -27.142782    425.25022    23.515206    22.169422    5.4124892    430.66271    5508.2433   -24031.311 
  495400   -95693.432   -84207.466     278.9217    20724     221704.6    6.4452935    23.258641   -39.308287    35.385527    425.13522    23.519118    22.173109     5.469989    430.60521    5514.2491   -24045.763 
  495500   -95732.301    -84203.84    279.95368    20724    221495.66    95.726198    261.53882    99.984886   -74.345114    425.18448    23.506671    22.161375    5.4453593    430.62984    5509.6294   -24058.165 
  495600   -95814.054    -84162.07    282.95325    20724    221684.89    71.911968   -15.471506    191.93751    39.269904     425.4681     23.50887    22.163448    5.3035522    430.77165    5499.7752   -24084.465 
  495700   -95791.497   -84177.383    282.03362    20724     221660.7    16.149253   -86.715672    56.147319    79.016114    425.41049    23.509179    22.163739     5.332353    430.74285    5490.3901   -24059.636 
  495800   -95827.075   -84187.864    282.64307    20724    221710.52   -33.453649    18.121185    145.55424   -264.03637    425.58144    23.507099    22.161778     5.246879    430.82832    5496.7222   -24052.654 
  495900   -95697.873    -84112.86    281.32696    20724    221927.97   -90.422836   -234.37334   -20.960211   -15.934958    425.85243    23.511139    22.165587    5.1113832    430.96382    5489.8993   -24111.182 
  496000   -95703.682   -84140.552    280.79555    20724    221908.51    88.378206    166.18479    41.625779    57.324048    425.55092    23.518436    22.172466    5.2621401    430.81306    5503.7666   -24109.954 
  496100    -95695.14   -84148.327     280.3993    20724    221924.27    21.718737   -41.982615   -43.681761    150.82059     425.7929    23.512587    22.166952    5.1411507    430.93405    5512.5058   -24106.151 
  496200   -95838.522   -84180.811    283.09232    20724    221608.24    33.506644    24.271025    112.47772    -36.22881     425.5037    23.503822    22.158689    5.2857476    430.78945    5532.1976   -24108.991 
  496300   -95864.957    -84159.88    284.24255    20724    221511.34   -81.591947   -209.66684    59.459971    -94.56897    425.73141    23.492398    22.147919    5.1718926    430.90331    5532.9419   -24130.484 
  496400   -95683.737   -84139.996    280.32469    20724    221462.41    40.801902    -132.6115    223.06343    31.953778    425.31845    23.501204    22.156221    5.3783766    430.69682      5512.65    -24137.95 
  496500   -95837.117   -84190.115    282.83227    20724    221596.81     6.935803    -233.6002     111.7224    142.68522    425.29036    23.509111    22.163675    5.3924198    430.68278    5526.0101   -24099.175 
  496600   -95653.877   -84118.423    280.12349    20724    221705.06    35.871912    205.21789    346.03507   -443.63723    425.10703    23.519922    22.173867    5.4840835    430.59112     5503.176   -24145.157 
  496700   -95667.047   -84092.628     281.0697    20724    221812.39    79.253868   -107.96556    259.57654    86.150628    425.22236    23.522424    22.176226     5.426421    430.64878      5512.13   -24181.137 
  496800   -95755.111   -84105.483    282.89604    20724    221662.73    58.624178    211.29836   -3.1010481   -32.324776    425.11322    23.517505    22.171589    5.4809893    430.59421     5503.419   -24165.473 
  496900   -95706.182   -84119.634    281.36423    20724    221788.93    59.484127     151.2484    118.53852   -91.334537    425.24701    23.520498    22.174411    5.4140941    430.66111    5511.1309   -24155.444 
  497000   -95647.403   -84150.476     279.1879    20724    221440.26    147.93257    101.79002    169.58824    172.41946    424.71806    23.516633    22.170767    5.6785698    430.39663    5512.8938    -24143.11 
  497100   -95615.579   -84121.839    279.11051    20724       221743    12.234371   -118.25528    5.4330205    149.52538    424.68001    23.533757    22.186911     5.697593    430.37761    5522.6437   -24166.403 
  497200   -95769.888   -84147.423    282.23643    20724    221581.75   -42.273984   -128.05607    21.733866   -20.499752    424.64703    23.526112    22.179703    5.7140874    430.36111    5528.4372   -24152.935 
  497300   -95839.869   -84132.938    284.28757    20724    221717.73   -18.441946   -11.241476   -146.29256     102.2082    424.97261    23.524314    22.178008    5.5512964     430.5239    5528.2136   -24166.702 
  497400    -95708.18   -84124.263    281.30034    20724    221546.22   -16.549601    56.429663    95.646962   -201.72543    425.14009    23.510581    22.165061    5.4675547    430.60765    5504.1701   -24156.571 
  497500   -95727.827   -84112.302    282.06788    20724     221514.7    125.21219    76.866754   -159.07004    457.83987    424.98931    23.513078    22.167415    5.5429444    430.53226    5513.3539   -24185.787 
  497600   -95745.485   -84093.175    282.96118    20724    221210.63   -90.167121   -161.21978   -103.99385   -5.2877405    424.67532    23.505619    22.160383     5.699939    430.37526    5526.9242   -24221.213 
  497700   -95847.376   -84148.834    284.08385    20724    221506.73    -24.12822  -0.16650901    480.77971   -552.99786    424.85639    23.516333    22.170484    5.6094054    430.46579    5540.2762   -24177.466 
  497800   -95779.988   -84095.944    283.73178    20724    221483.35    2.9916906    112.57915    15.821206   -119.42529    424.77647    23.517304    22.171399    5.6493662    430.42583    5523.7056   -24213.833 
  497900   -95821.307   -84129.924    283.91001    20724    221328.83    25.265052   -11.318494    81.244587    5.8690643    424.56863    23.514853    22.169088    5.7532839    430.32192    5524.5436   -24188.863 
  498000   -95738.992   -84111.361    282.36187    20724    221816.97    28.891246   -144.97025    139.31321     92.33078    424.65203    23.538457    22.191342    5.7115837    430.36362    5513.5686   -24182.756 
  498100   -95818.158   -84129.485    283.84419    20724    221633.46    58.071088    17.855064    327.95307   -171.59487    424.24452    23.540016    22.192812    5.9153411    430.15986    5545.1982     -24201.8 
  498200   -95772.088   -84161.395    281.95055    20724    221382.05    15.576466    27.344908   -47.233119    66.617609     424.5412    23.518439     22.17247    5.7669999     430.3082     5541.613   -24176.827 
  498300   -95887.073   -84194.552    283.93766    20724    221661.73   -90.524475    -122.1507    21.525398   -170.94813    424.47918     23.53501    22.188092    5.7980087    430.27719     5574.235   -24163.566 
  498400   -95825.121   -84225.743    281.67579    20724    221197.68   -76.738307   -50.563245   -170.43725   -9.2144276    424.04837    23.522301     22.17611    6.0134133    430.06179    5554.9649   -24131.658 
  498500   -95745.594   -84217.342    279.94858    20724    221282.07    33.786213   -214.64955    163.12561    152.88258    423.99193    23.528353    22.181816    6.0416355    430.03356    5557.3342   -24147.508 
  498600   -95848.822   -84214.258    282.53022    20724     221215.9  -0.69424872    20.323555    12.217096   -34.623398    423.75084    23.531526    22.184808    6.1621817    429.91302    5556.7908   -24152.862 
  498700   -95804.394   -84229.697    281.07643    20724    220913.39   -89.613161   -129.48917    52.509224   -191.85954    423.39893    23.525202    22.178845    6.3381346    429.73707    5541.3327   -24130.036 
  498800   -95864.949   -84179.173    283.77386    20724    221091.85    9.9232895     68.96487  -0.74882146    -38.44618    423.31881    23.536929    22.189901     6.378195    429.69701    5540.3063   -24179.201 
  498900   -95725.652   -84184.051    280.27276    20724    220915.02    22.806249   -104.23025    49.382057    123.26694    423.14102    23.532457    22.185685    6.4670898    429.60811    5517.6108   -24159.028 
  499000   -95754.709   -84194.181    280.73237    20724    220919.83    187.41546    135.30238    70.125663    356.81835    423.14654     23.53256    22.185782    6.4643305    429.61087    5544.0404   -24184.416 
  499100   -95728.308     -84178.9    280.46234    20724    221049.65    60.907252   -30.334988    302.56346   -89.506715    422.93707    23.545301    22.197794    6.5690628    429.50614    5549.4827   -24195.722 
  499200   -95734.994   -84152.546    281.26466    20724     221262.3    42.341204    69.784737    51.020121    6.2187553     423.0356    23.553881    22.205883    6.5198003     429.5554    5547.8576   -24215.146 
  499300   -95677.174   -84130.099    280.40568    20724    221088.77    160.07965     288.9759    195.13358    -3.870547    422.90431    23.548297    22.200618    6.5854456    429.48975     5557.852   -24259.593 
  499400   -95835.548    -84128.68    284.28603    20724    220944.12   -123.91958   -328.19712    84.001714   -127.56332    422.67886    23.546869    22.199273    6.6981693    429.37703    5547.0522   -24246.636 
  499500   -95743.385   -84130.124    282.01291    20724     221035.6    21.165059    83.986243    125.40608   -145.89715    422.72987    23.550322    22.202528    6.6726637    429.40254    5589.2976   -24290.325 
  499600   -95696.955   -84176.439    279.76074    20724     220786.7    14.872122    132.25663    216.90643   -304.54669    422.48045    23.544006    22.196573    6.7973756    429.27782    5578.6063   -24241.706 
  499700   -95857.105   -84167.717    283.86157    20724    220901.14   -27.788135   -137.17639   -347.13095    400.94294    422.75486    23.542463    22.195118    6.6601687    429.41503    5589.3929   -24258.689 
  499800   -95823.645   -84142.427    283.66315    20724    221043.75    79.401963   -61.902081    429.70344   -129.59547    422.88417     23.54646    22.198887    6.5955144    429.47969    5557.9983   -24253.417 
  499900   -95897.199   -84257.895    282.64533    20724     220777.7    42.434231    175.73208    232.63975   -281.06914    422.77426    23.535344    22.188407    6.6504677    429.42473    5605.1164   -24195.603 
  500000   -95884.648    -84215.05    283.38098    20724    220684.71       33.279    227.77277   -456.15304    328.21727    423.18496    23.518966    22.172966    6.4451199    429.63008    5573.3519   -24210.812 
Loop time of 71433.7 on 32 procs for 500000 steps with 20724 atoms

Performance: 1.210 ns/day, 19.843 hours/ns, 6.999 timesteps/s
97.4% CPU use with 32 MPI tasks x no OpenMP threads

MPI task timing breakdown:
Section |  min time  |  avg time  |  max time  |%varavg| %total
---------------------------------------------------------------
Pair    | 13626      | 14595      | 16450      | 800.8 | 20.43
Bond    | 0.78736    | 0.88253    | 1.2176     |   9.6 |  0.00
Kspace  | 13333      | 15193      | 16164      | 786.4 | 21.27
Neigh   | 10765      | 13050      | 15032      |1575.3 | 18.27
Comm    | 565.92     | 1872.1     | 4314       |2783.6 |  2.62
Output  | 5.649      | 32.887     | 44.321     | 207.3 |  0.05
Modify  | 25227      | 26604      | 29979      | 904.5 | 37.24
Other   |            | 86.2       |            |       |  0.12

Nlocal:    647.625 ave 705 max 597 min
Histogram: 2 1 4 11 3 2 3 1 2 3
Nghost:    7486.59 ave 7877 max 6999 min
Histogram: 2 0 2 7 5 4 0 2 7 3
Neighs:    238765 ave 275835 max 215577 min
Histogram: 3 9 8 1 1 0 4 1 1 4
FullNghs:  477528 ave 551041 max 427000 min
Histogram: 2 7 11 1 0 1 3 2 1 4

Total # of neighbors = 15280896
Ave neighs/atom = 737.353
Ave special neighs/atom = 2
Neighbor list builds = 500000
Dangerous builds not checked
write_data production.R1
PPPM initialization ...
  extracting TIP4P info from pair style
WARNING: Using 12-bit tables for long-range coulomb (../kspace.cpp:316)
  G vector (1/distance) = 0.345939
  grid = 400 48 48
  stencil order = 5
  estimated absolute RMS force accuracy = 0.00040133
  estimated relative force accuracy = 1.20859e-06
  using double precision FFTs
  3d grid and FFT values/proc = 67260 38400
write_restart restartproduction.R1
PPPM initialization ...
  extracting TIP4P info from pair style
WARNING: Using 12-bit tables for long-range coulomb (../kspace.cpp:316)
  G vector (1/distance) = 0.345939
  grid = 400 48 48
  stencil order = 5
  estimated absolute RMS force accuracy = 0.00040133
  estimated relative force accuracy = 1.20859e-06
  using double precision FFTs
  3d grid and FFT values/proc = 67260 38400
Total wall time: 19:50:34
