LAMMPS (30 Jul 2016)
# Sets up LAMMPS simulation for transient melting of ice: TIP4P/Ice
# Ensure cold thermostats do not move
# Thinbox: 16x1x1
# Defects
# Order param l=2

#### setting MD parameters ####
units real
boundary p p p
atom_style full

# read ice box in restart file
#read_data ice-ih-restart.data
read_restart restart.state
  orthogonal box = (0.382967 0.0206654 0.0194827) to (435.692 23.5105 22.165)
  32 by 1 by 1 MPI processor grid
  20736 atoms
  13824 bonds
  6912 angles
  2 = max # of 1-2 neighbors
  1 = max # of 1-3 neighbors
  1 = max # of 1-4 neighbors
  2 = max # of special neighbors

#replicate 16 boxes, 16x1x1


#### force field definition ####
pair_style      lj/cut/tip4p/long 2 1 1 1 0.1577 10.0
pair_modify	tail yes

kspace_style	pppm/tip4p 1.0e-6

bond_style	harmonic
angle_style	harmonic
dihedral_style	none
improper_style	none

bond_coeff	1 450.0 0.9572
angle_coeff	1 55.0 104.52


# reset pair coeff
pair_coeff	* * 0.0 0.0

#OO
pair_coeff	2 2 0.21085 3.1668
#OH
pair_coeff	* 1 0.0000 0.0000

neighbor        2.0 bin
neigh_modify    every 1 delay 1 check no

timestep	2.0
fix		constraints all shake 0.000001 20 0 b 1 a 1
  0 = # of size 2 clusters
  0 = # of size 3 clusters
  0 = # of size 4 clusters
  6912 = # of frozen angles

group water type 1 2
20736 atoms in group water

#*********** SIMULATION PARAMETER TO ADJUST ****************
#Box dimensions
variable lx equal lx
variable ly equal ly
variable lz equal lz

### Temperature of the hot and cold regions ####
variable thi equal 375
variable tlo equal 215
variable runpressure equal 0.986923
# Configuration equilibrated in density and temperature

# Define dx here

variable lx equal lx
variable ly equal ly
variable lz equal lz

variable xlo equal xlo
variable xhi equal xhi


variable dx equal 2.0

### ADD IN DEFECTS AT THE CENTRE OF THE HOT THERMOSTAT ###
variable x1 equal ${lx}/4.0
variable x1 equal 435.309266367809/4.0
variable y1 equal ${ly}/2.0
variable y1 equal 23.4898691986013/2.0
variable z1 equal ${lz}/2.0
variable z1 equal 22.145534576919/2.0

region kill1 sphere ${x1} ${y1} ${z1} 3
region kill1 sphere 108.827316591952 ${y1} ${z1} 3
region kill1 sphere 108.827316591952 11.7449345993007 ${z1} 3
region kill1 sphere 108.827316591952 11.7449345993007 11.0727672884595 3
delete_atoms region kill1 compress no bond yes mol yes
Deleted 12 atoms, new total = 20724
Deleted 8 bonds, new total = 13816
Deleted 4 angles, new total = 6908




variable thip equal ${thi}*2.0/3.0
variable thip equal 375*2.0/3.0
variable tlop equal ${tlo}*2.0/3.0
variable tlop equal 215*2.0/3.0
variable cbl equal ${lx}*3.0/4.0-${dx}
variable cbl equal 435.309266367809*3.0/4.0-${dx}
variable cbl equal 435.309266367809*3.0/4.0-2
variable cbh equal ${lx}*3.0/4.0+${dx}
variable cbh equal 435.309266367809*3.0/4.0+${dx}
variable cbh equal 435.309266367809*3.0/4.0+2
variable hbl equal ${lx}*1.0/4.0-${dx}
variable hbl equal 435.309266367809*1.0/4.0-${dx}
variable hbl equal 435.309266367809*1.0/4.0-2
variable hbh equal ${lx}*1.0/4.0+${dx}
variable hbh equal 435.309266367809*1.0/4.0+${dx}
variable hbh equal 435.309266367809*1.0/4.0+2


#***************************************************
## EQUILIBRATION PERIOD - to reach the steady state ###
#run 0

#reset the timestep to start your production run
reset_timestep 0

# define a group to perform averages
#group s1 type 1
###*** SYSTEM THERMOSTATTING: HOT and COLD regions ***###

fix NVE all nve
fix PRESS all press/berendsen aniso ${runpressure} ${runpressure} 500000 couple yz
fix PRESS all press/berendsen aniso 0.986923 ${runpressure} 500000 couple yz
fix PRESS all press/berendsen aniso 0.986923 0.986923 500000 couple yz


### Apply THERMOSTATS ###

#set up the "hot region" in the middle of the box
region hot block ${hbl} ${hbh} 0 ${ly} 0 ${lz} units box
region hot block 106.827316591952 ${hbh} 0 ${ly} 0 ${lz} units box
region hot block 106.827316591952 110.827316591952 0 ${ly} 0 ${lz} units box
region hot block 106.827316591952 110.827316591952 0 23.4898691986013 0 ${lz} units box
region hot block 106.827316591952 110.827316591952 0 23.4898691986013 0 22.145534576919 units box


#set up the "cold region" at the left end of the box
region cold block ${cbl} ${cbh} 0 ${ly} 0 ${lz} units box
region cold block 324.481949775857 ${cbh} 0 ${ly} 0 ${lz} units box
region cold block 324.481949775857 328.481949775857 0 ${ly} 0 ${lz} units box
region cold block 324.481949775857 328.481949775857 0 23.4898691986013 0 ${lz} units box
region cold block 324.481949775857 328.481949775857 0 23.4898691986013 0 22.145534576919 units box

#set up the "cold region" at the right end of the box
#region cold2 block ${h2bl} ${xhi} 0 ${ly} 0 ${lz} units box


#Cold regions  unification
#region cold union 2 cold1 cold2 units box

#Create group of cold molecules
####group cool_ice region cold
####group cool_ice include molecule

####compute cold_temp cool_ice temp
####fix cold_rescale water temp/rescale 1 ${tlo} ${tlo} 0.0001 1.0
####fix_modify cold_rescale temp cold_temp

#this calculates the temperature using only the atoms in the "hot region"
#compute hot_temp all temp/region hot

# calculate the temperature using only WATER in the "hot region"
compute hot_temp water temp/region hot

#this calculates the temperature using only WATER in the "cold region"
compute cold_temp water temp/region cold


#set up a basic velocity rescale for the hot region WATER with thip
fix hot_rescale water temp/rescale 1 ${thip} ${thip} 1.0 1.0
fix hot_rescale water temp/rescale 1 250 ${thip} 1.0 1.0
fix hot_rescale water temp/rescale 1 250 250 1.0 1.0
#change the thermostat to only act on the "hot region"
#this is done by passing it the "hot temp" compute that we defined above
fix_modify hot_rescale temp hot_temp

#set up a basic velocity rescale for the cold region
fix cold_rescale water temp/rescale 1 ${tlop} ${tlop} 1.0 1.0
fix cold_rescale water temp/rescale 1 143.333333333333 ${tlop} 1.0 1.0
fix cold_rescale water temp/rescale 1 143.333333333333 143.333333333333 1.0 1.0
#change the thermostat to only act on the "cold region"
#this is done by passing it the "cold temp" compute that we defined above
fix_modify cold_rescale temp cold_temp

### Ensure MOMENTUM CONSERVATION ###

#ensure that linear momentum is conserved despite the "thermostatting" by velocity rescaling
fix cons_mom all momentum 1 linear 1 1 1


thermo 100
thermo_style custom step pe etotal temp atoms vol press pxx pyy pzz lx ly lz xlo xhi f_cold_rescale f_hot_rescale

group ox type 2
6908 atoms in group ox
group hy type 1
13816 atoms in group hy
compute KE all ke/atom
variable TEMP atom c_KE*4186.8/(1.3806488*6.02214129)

compute cc1 all chunk/atom bin/1d x center 2 units box
#fix TPROFILE all ave/chunk 1 500 500 cc1 v_TEMP density/number file temp.dat
fix TPROFILEox ox ave/chunk 1 500 500 cc1 v_TEMP density/number file temp-ox.dat
fix TPROFILEhy hy ave/chunk 1 500 500 cc1 v_TEMP density/number file temp-hy.dat

compute orderparam ox orientorder/atom degrees 1 2 nnn 4 cutoff 3.5
compute cc2 ox chunk/atom bin/1d x center 2 units box
#fix ORDERPARAM all ave/chunk 1 500 500 cc2 c_orderparam[1] file order-param.dat
fix ORDERPARAM all ave/chunk 1 500 500 cc2 c_orderparam[1] file order-param.dat

restart 50000 config.restart

run 500000
PPPM initialization ...
  extracting TIP4P info from pair style
WARNING: Using 12-bit tables for long-range coulomb (../kspace.cpp:316)
  G vector (1/distance) = 0.345587
  grid = 405 48 48
  stencil order = 5
  estimated absolute RMS force accuracy = 0.000406229
  estimated relative force accuracy = 1.22335e-06
  using double precision FFTs
  3d grid and FFT values/proc = 67260 38880
Neighbor list info ...
  2 neighbor list requests
  update every 1 steps, delay 1 steps, check no
  max neighbors/atom: 2000, page size: 100000
  master list distance cutoff = 12.3154
  ghost atom cutoff = 12.3154
  binsize = 6.1577 -> bins = 71 4 4
Memory usage per processor = 12.7929 Mbytes
Step PotEng TotEng Temp Atoms Volume Press Pxx Pyy Pzz Lx Ly Lz Xlo Xhi cold_res hot_resc 
       0   -103725.18   -94848.715    215.55341    20724    226446.01    -45.53511   -362.27729   -101.01544     326.6874    435.30927    23.489869    22.145535   0.38296682    435.69223            0            0 
     100   -103544.73   -94561.316    218.15058    20724    226560.41   -3.7417368    108.57182    90.721363    -210.5184    435.29894     23.49608     22.15139   0.38812887    435.68707   -31.268767   -252.00584 
     200   -103596.11   -94552.203    219.61956    20724    226297.83    13.092427   -20.415808    241.66096   -181.96787    435.02729    23.489791    22.145461   0.52395345    435.55125   -26.854012   -276.16895 
     300   -103478.59   -94438.816    219.51918    20724    226439.11   -15.838846   -51.238349    18.364414   -14.642601    435.30709     23.48957    22.145252   0.38405308    435.69115   -31.904537   -379.17373 
     400   -103566.33   -94448.617    221.41185    20724    226381.39    12.520237   -19.294738    73.718994   -16.863546    435.15621    23.490647    22.146268   0.45949706     435.6157   -51.133067   -354.43501 
     500   -103437.37   -94392.647    219.63941    20724    226545.65   -60.796466   -192.65625    -77.93959    88.206439     435.2565    23.496461    22.151749     0.409352    435.66585    -36.09385   -419.21218 
     600    -103415.4   -94362.746    219.83193    20724    226609.98    84.490394   -125.38187    132.03322    246.81983    435.31462    23.498228    22.153415   0.38029202    435.69491   -35.190578   -454.70518 
     700   -103322.09   -94306.407    218.93414    20724    226486.27    103.57531    139.36829    217.77653   -46.418889    435.07772    23.498207    22.153395   0.49873993    435.57646   -24.602374    -526.0145 
     800   -103409.73   -94289.711    221.46777    20724    226581.19    38.503826    -32.87229    2.4992366    145.88453    435.35206    23.495724    22.151055   0.36156958    435.71363   -5.3421689   -557.30996 
     900   -103387.69   -94256.688    221.73455    20724    226624.48     18.27716    130.43571   -179.10275    103.49852    435.22374    23.501433    22.156436   0.42573213    435.64947  -0.88541969   -593.46836 
    1000   -103295.09   -94229.894    220.13636    20724    226534.24    105.78901    37.289793    402.15956   -122.08234    435.29587    23.494806    22.150189   0.38966559    435.68553   -4.5336467    -623.9491 
    1100   -103392.83   -94251.914    221.97517    20724    226609.84    41.940064     143.7281   -34.848677    16.940769    435.24301    23.500153     22.15523   0.41609404    435.65911    12.576163   -614.92362 
    1200   -103261.54   -94154.234    221.15899    20724    226462.38   0.95988918      144.687   -211.14937    69.342036    435.23183    23.492808    22.148305   0.42168298    435.65352   -17.700358    -684.2555 
    1300   -103335.36   -94106.247    224.11702    20724    226665.41    10.431919   -157.73116    118.63598    70.390929    435.40205    23.498742    22.153899   0.33657286    435.73863   -35.057202   -711.79478 
    1400   -103311.39   -94120.608    223.18624    20724    226583.53   -28.325639   -77.738107   -87.886141     80.64733    435.28218    23.497732    22.152947    0.3965108    435.67869   -8.0935083   -725.07896 
    1500    -103324.9   -94057.332    225.05075    20724    226460.58   -19.564027   -96.997189    -47.95416    86.259267    435.06425    23.497239    22.152482   0.50547592    435.56972   -1.5182019   -799.17159 
    1600   -103257.71    -94005.97    224.66642    20724    226572.35   -36.758495   -84.763988    56.587636   -82.099133    435.13672    23.501079    22.156103   0.46923994    435.60596   -22.848232   -825.34391 
    1700   -103249.65   -93959.277    225.60464    20724    226700.21   -31.369225    65.721166   -130.93417   -28.894666    435.45166    23.499207    22.154338   0.31176816    435.76343   -16.061441   -877.66654 
    1800    -103186.8   -93967.883    223.86947    20724    226512.46    13.836319   -41.011603    56.583402     25.93716    435.02828    23.500901    22.155935   0.52346108    435.55174   -31.240849   -861.31672 
    1900   -103141.43   -93965.326     222.8297    20724    226584.79    -46.16165    93.887845   -95.398283   -136.97451     435.1915    23.500245    22.155316   0.44185061    435.63335   -1.5782358   -891.37698 
    2000   -103154.37   -93915.793    224.34683    20724    226670.79    12.024977   -127.43625     205.5895   -42.078318    435.22516    23.503795    22.158664   0.42501887    435.65018   -1.7270957   -941.66117 
    2100   -103144.38   -93966.029    222.88427    20724    226540.52    62.055908    -39.15185    293.48678   -68.167202    435.25042    23.496358    22.151652   0.41238858    435.66281   -21.496707   -876.88792 
    2200   -103230.79   -93935.068    225.73448    20724    226775.08   -43.952287   -41.796474   -129.85204    39.791658    435.57355    23.499798    22.154895   0.25082593    435.82437    6.9825135   -928.14549 
    2300   -103228.54   -93958.472    225.11161    20724    226502.23   -20.815844   -140.93531   -285.27329    363.76107    435.21004    23.495463    22.150808   0.43257936    435.64262   -2.6714844   -903.56422 
    2400   -103270.78   -93909.297    227.33149    20724    226910.11   -32.606982   -121.36448    100.45711   -76.913578    435.61077    23.505789    22.160544   0.23221626    435.84298    8.5123117   -954.47933 
    2500   -103178.99   -93933.779    224.50789    20724    226577.39   -25.918255   -77.924535   -31.974362    32.144133     435.3946    23.494379    22.149787   0.34029795     435.7349    7.6563206   -938.02452 
    2600   -103245.24   -93902.973    226.86476    20724    226775.23    4.3023791     16.95519   -43.774009    39.725956    435.40321    23.504402    22.159236   0.33599609     435.7392    2.0394808    -961.8361 
    2700   -103206.32   -93863.205    226.88546    20724     226656.3   -57.754076    59.025516    -129.7281   -102.55964    435.40932    23.498073    22.153269    0.3329416    435.74226   -15.977641   -983.21578 
    2800   -103081.51    -93808.89    225.17341    20724    226810.79    19.563813   -56.116875   -135.43874    250.24706    435.63072    23.500106    22.155186   0.22224178    435.85296   -24.717746   -1031.2113 
    2900   -103044.21   -93767.127     225.2818    20724    226507.08   -54.269243   -132.28411   -160.74926    130.22564    435.34018    23.492202    22.147734   0.36751244    435.70769   -28.104411   -1072.9877 
    3000      -103098   -93805.716    225.65095    20724    226666.78    49.863048    145.30479    16.009989   -11.725638    435.45449    23.497398    22.152632   0.31035414    435.76485      9.87351   -1074.5348 
    3100   -103161.49   -93732.952    228.95975    20724    226741.47   -66.366858    27.185617   -345.10196    118.81577    435.49603    23.500148    22.155225    0.2895859    435.78561   -30.200522    -1100.229 
    3200   -103091.58   -93748.239    226.89077    20724    226563.84   -27.213131    9.4118907    47.609494   -138.66078     435.3804     23.49406    22.149485   0.34739788     435.7278   -22.140747   -1101.1033 
    3300    -103053.8   -93703.755    227.05378    20724    226561.08    73.143226    24.459022    -19.44065    214.41131    435.60622    23.487826    22.143609   0.23448874    435.84071   -18.550714   -1154.2114 
    3400    -103060.4   -93711.138    227.03465    20724    226621.55    12.290178    125.19971   -162.88981    74.560636    435.50584    23.493668    22.149116   0.28468034    435.79052   -2.5067974   -1159.7612 
    3500   -103091.24   -93686.209    228.38897    20724    226623.93    77.000016    71.247712   -112.77808    272.53042    435.36704    23.497536    22.152763   0.35407896    435.72112    -24.70705   -1167.4223 
    3600   -103115.48   -93686.114    228.97992    20724    226703.39     7.029743   -77.844934   -147.94573    246.87989    435.33868    23.502421    22.157368   0.36825822    435.70694   -2.4919391   -1183.7417 
    3700   -103065.57   -93633.201    229.05291    20724    226631.27   -11.206378    161.93232    -216.9842    21.432743    435.48755    23.494665    22.150056   0.29382746    435.78137   -36.222109   -1206.2352 
    3800   -103006.93   -93636.619    227.54585    20724    226599.71    51.646618    -15.59429    162.96518    7.5689653    435.33933    23.497028    22.152284   0.36793406    435.70727   -22.460342   -1220.1999 
    3900   -102953.63   -93580.949    227.60342    20724       226610     29.23428    -59.91393    405.65314   -258.03637    435.39456    23.496071    22.151382    0.3403198    435.73488   -21.658262   -1276.8054 
    4000   -103061.66    -93614.17    229.41998    20724    226614.67   -22.326344    56.740517    -121.2286   -2.4909512    435.46756    23.494344    22.149753   0.30382094    435.77138   -22.578845   -1242.7514 
    4100   -103069.29   -93616.096    229.55841    20724    226564.58   -53.483954    40.691955   -208.46537    7.3215518    435.33353    23.495363    22.150714   0.37083684    435.70436   -8.0936463   -1255.2826 
    4200   -103003.59   -93572.564    229.02015    20724    226542.88    -64.54103   -193.91609   -5.9160381    6.2090407    435.34873    23.493828    22.149267   0.36323462    435.71197   -30.497134   -1278.0133 
    4300   -103038.39   -93563.781    230.07853    20724     226589.9   -6.7292167   -83.457225       38.269    25.000576    435.34662    23.496323    22.151619   0.36429152    435.71091   -33.278407   -1285.9316 
    4400   -102920.33   -93568.609     227.0943    20724    226548.15     43.05675    14.109482   -132.54259    247.60336     435.3373     23.49441    22.149815   0.36895208    435.70625   -28.054144   -1288.0397 
    4500   -102929.17   -93478.446    229.49841    20724    226669.56   -26.356484    83.606949    33.031009   -195.70741    435.48317    23.496768    22.152039   0.29601492    435.77919   -53.548524   -1350.3696 
    4600   -102958.37   -93490.945    229.90404    20724    226698.43   -30.008492   -20.930465   -136.42469    67.329683     435.4571    23.498967    22.154112   0.30904883    435.76615   -47.425987   -1342.2425 
    4700   -103013.62   -93488.028    231.31658    20724    226609.63   -7.6823547    72.334689   -72.121481   -23.260272    435.40064    23.495888    22.151209   0.33727861    435.73792   -40.528623   -1356.5748 
    4800   -102796.29   -93448.206    227.00616    20724    226717.14   -6.2640395    85.030967    18.675429   -122.49851    435.45405     23.50002    22.155104    0.3105727    435.76463   -67.842178   -1364.5471 
    4900    -102947.5   -93446.258    230.72534    20724    226815.24    9.1783507   -21.511231    -95.86053    144.90681    435.49359    23.504036    22.158891   0.29080497     435.7844   -74.101662   -1361.9551 
    5000   -102958.26   -93465.809    230.51182    20724    226762.89   0.88526593    161.64654   -130.20562   -28.785121    435.58056    23.498977    22.154121   0.24732146    435.82788   -43.526772   -1375.9178 
    5100   -102907.34   -93488.979    228.71273    20724    226720.11    13.633068   -143.20676    148.45356      35.6524    435.35129    23.502947    22.157864   0.36195361    435.71325   -34.632639   -1364.0303 
    5200   -102867.82    -93440.27    228.93587    20724    226813.36    23.349227    78.519944   -6.8569789   -1.6152857    435.50036    23.503756    22.158627   0.28742056    435.78778   -46.375361    -1396.423 
    5300   -102852.85   -93410.517    229.29489    20724    226865.53    82.900283    107.98341    340.49573   -199.77829    435.56104    23.504822    22.159631   0.25708203    435.81812   -27.598842   -1448.3473 
    5400   -102871.45    -93385.17    230.36189    20724    226914.54   -29.152937   -43.377408    138.84812   -182.92952    435.58954    23.506591      22.1613   0.24283033    435.83237   -10.234498   -1486.8115 
    5500    -102843.1   -93378.483    229.83579    20724    226903.74    31.604293   -12.865145    110.82317   -3.1451479    435.58813     23.50607    22.160808   0.24353353    435.83167   -7.1121655   -1500.7875 
    5600   -102839.06   -93374.043    229.84569    20724    227030.42    76.740131   -11.624992    59.718675    182.12671    435.57237    23.513056    22.167394   0.25141414    435.82379   -8.3331465   -1502.1782 
    5700      -102880    -93367.08    231.00885    20724     226811.3    31.926978    83.349849    108.80378   -96.372697    435.55418    23.502197    22.157157   0.26051006    435.81469   -16.273329    -1508.471 
    5800   -102836.71    -93371.63    229.84722    20724    226719.51   -90.880977   -113.24498    93.124865   -252.52282    435.40156    23.501559    22.156555    0.3368188    435.73838   -20.249766   -1496.1434 
    5900   -102851.92   -93361.007    230.47438    20724     226825.4    38.191562    176.89468   -41.230556   -21.089438    435.44177    23.505961    22.160706   0.31671337    435.75849   -19.128886   -1511.3638 
    6000   -102876.15   -93345.552    231.43826    20724    226783.61    33.099979    43.199622    2.7906742    53.309641    435.53354    23.501319    22.156329   0.27082813    435.80437   -7.5441625   -1541.7346 
    6100    -102833.2   -93340.859     230.5091    20724    226775.32   -6.8330095    -104.9699   -31.308581    115.77945    435.63936    23.498036    22.153234   0.21792207    435.85728   -12.390784   -1539.3044 
    6200   -102822.47   -93311.925    230.95132    20724    226869.13  0.099878501   -129.88532    86.107486    44.077472    435.45735    23.507806    22.162445   0.30892612    435.76627   -15.390101   -1564.2756 
    6300   -102876.58   -93357.411    231.16054    20724       226624    9.5347462   -96.222129   -186.45112    311.27749    435.40524    23.496509    22.151794   0.33497998    435.74022    8.3478338   -1549.7178 
    6400   -102818.12   -93366.812    229.51262    20724    226775.15     -4.11965   -22.072188    56.958321   -47.245083    435.56814    23.499947    22.155036   0.25352792    435.82167  -0.97159912   -1527.6236 
    6500   -102824.98   -93325.397    230.68493    20724    226656.18    23.798695    13.629268    228.12601   -170.35919    435.28197    23.501504    22.156504   0.39661735    435.67858   -6.8721753   -1569.6607 
    6600   -102911.77   -93337.418    232.50056    20724    226824.62    55.945589    135.50153    345.61526   -313.28002    435.35891    23.508157    22.162776   0.35814715    435.71705   -16.377196   -1546.0542 
    6700   -102821.01   -93299.935    231.20678    20724    226700.97   -41.130384   -31.077524   -29.606899   -62.706731    435.29691    23.503423    22.158313   0.38914455    435.68606   -9.8656526    -1588.461 
    6800   -102761.31   -93252.759    230.90274    20724    226688.64    46.398547   -8.2746178    168.85779   -21.387533    435.39718    23.500077    22.155158   0.33900917    435.73619   -20.454862   -1629.7719 
    6900   -102796.44   -93265.765    231.44007    20724    226663.22    32.035631    136.21085   -86.602944    46.498986     435.3437    23.500203    22.155277   0.36574776    435.70945   -13.880158    -1625.803 
    7000   -102718.35   -93189.066    231.40633    20724     226708.9    35.656357    268.92354    35.454306   -197.40878    435.26696    23.504643    22.159463   0.40411898    435.67108    -20.89258   -1693.9449 
    7100   -102764.05   -93174.213    232.87678    20724    226795.15     21.68616    94.708658   -111.70011    82.049932     435.2585    23.509342    22.163893   0.40835218    435.66685   -15.327091   -1713.1214 
    7200   -102706.79   -93148.899    232.10085    20724    226667.05   -63.958821   -181.82963   -58.580626     48.53379    435.33214    23.500713    22.155758   0.37152979    435.70367   -24.911217   -1728.9552 
    7300   -102735.69   -93206.317    231.40849    20724    226923.15   -32.462559   -73.333495     51.61631   -75.670493    435.40116    23.512122    22.166514   0.33701938    435.73818   -6.7636233   -1684.9229 
    7400   -102730.59   -93199.409    231.45228    20724     226656.9   -1.6361895   -57.668718    98.877237   -46.117088    435.29227    23.501264    22.156277   0.39146364    435.68374   -10.356901   -1699.3522 
    7500   -102686.01   -93215.437    229.98052    20724    226674.52    51.199792    48.555552   -74.232526    179.27635    435.23585      23.5037    22.158574   0.41967696    435.65552    7.3260299   -1703.3394 
    7600   -102794.36   -93189.939    233.23089    20724    226622.33   -93.868494     82.03025    -305.6627    -57.97303    435.35624    23.497745    22.152959   0.35948246    435.71572   -6.1947357   -1712.1027 
    7700   -102799.32   -93187.978    233.39901    20724    226760.18    -5.669423    18.512498    14.488062   -50.008829    435.37583    23.504361    22.159197   0.34968614    435.72551   -1.6998622   -1720.4435 
    7800   -102695.84   -93183.109     231.0044    20724    226727.24   -35.565017   -165.56325   -88.752341    147.62054    435.40066    23.501984    22.156956   0.33726979    435.73793    7.3348743   -1735.1185 
    7900   -102729.12   -93175.849    231.98874    20724    226704.84   -43.108555    43.575421   -61.177426   -111.72366    435.50555    23.497993    22.153193   0.28482577    435.79037     24.39724   -1762.0957 
    8000   -102772.13   -93168.903    233.20186    20724     226775.2    27.390528   -40.505893    -20.28593    142.96341    435.48647    23.502154    22.157116   0.29436575    435.78083    24.362747   -1769.2435 
    8100    -102662.8   -93106.402    232.06473    20724    226676.82   -12.723712   -230.89211    84.194871     108.5261    435.24834    23.503482    22.158368    0.4134314    435.66177   -12.920144   -1798.0257 
    8200   -102689.32   -93089.987    233.10724    20724    226862.23    66.412872    83.590166    352.98202   -237.33357    435.38225    23.509476    22.164019   0.34647345    435.72873    -8.410376   -1818.6974 
    8300   -102685.59   -93133.198    231.96741    20724    226829.92    -47.05335   -109.58415   -243.26537    211.68947    435.31573    23.509598    22.164134   0.37973703    435.69546    -2.254608    -1779.349 
    8400   -102586.92   -93083.386      230.781    20724    226712.83   -24.425286    1.8680544    3.3670437   -78.510955    435.40622    23.501087    22.156111   0.33449218    435.74071   -13.277585   -1822.3907 
    8500   -102684.76   -93090.664     232.9802    20724    226704.28    27.081087    -72.14207    28.671825    124.71351    435.32048    23.502958    22.157875     0.377359    435.69784   -7.7788074   -1824.5553 
    8600   -102596.61   -93048.079    231.87374    20724    226778.19    59.577254     127.4213   -25.962763     77.27322    435.22462    23.509378    22.163927   0.42529229    435.64991   -11.856652   -1861.5947 
    8700   -102716.71   -93079.526    234.02651    20724    226680.24    -37.17888    33.012699   -18.996804   -125.55254    435.16462     23.50592    22.160667   0.45529223    435.61991    13.494756   -1856.7273 
    8800   -102622.99   -93050.702    232.45061    20724    226757.72   -14.471174   -41.608315    -174.9745     173.1693    435.26432    23.507244    22.161915   0.40543957    435.66976   -9.6685862   -1862.9604 
    8900      -102585   -93045.745    231.64837    20724    226737.96    79.578783    37.360762    48.918284     152.4573    435.11485    23.510257    22.164756   0.48017691    435.59502   -8.4049109   -1874.1539 
    9000   -102584.87   -92998.064    232.80307    20724    226702.49   -25.998607   -164.66559    166.65747   -79.987708    435.25574    23.504613    22.159435   0.40973181    435.66547   -38.864004   -1889.0647 
    9100   -102603.48   -93008.156    233.00989    20724    226719.62    26.812349    74.148013   -210.01931    216.30835    435.16842    23.507859    22.162495   0.45338792    435.62181    -8.346196   -1911.6217 
    9200   -102655.01   -92979.466     234.9579    20724    227006.93    29.733183    308.96068   -199.68247   -20.078665    435.59815    23.511144    22.165592   0.23852664    435.83667    2.8949757   -1945.0275 
    9300   -102607.17   -92978.225    233.82636    20724    226938.75   -46.568017   -72.896785    -243.9495    177.14223    435.47756    23.510868    22.165331   0.29882198    435.77638   -4.6292844   -1938.4829 
    9400   -102541.73    -92913.19    233.81652    20724    226864.59    40.957271    70.443567   -49.621128    102.04937    435.46187    23.507449    22.162108   0.30666398    435.76854   -31.172687   -1983.0151 
    9500   -102543.77   -92940.358    233.20635    20724    226934.68    4.0852886    30.608086    80.154459   -98.506679     435.5436    23.508874    22.163452    0.2657975     435.8094   -41.961645   -1942.9746 
    9600    -102507.2    -92942.44    232.26763    20724    226855.66   -19.333793   -50.301866    306.07704   -313.77655     435.3418    23.510228    22.164728   0.36669841     435.7085   -32.694177   -1952.0265 
    9700   -102525.44    -92929.33    233.02903    20724    226878.19    14.885558    74.036235    13.360754   -42.740315    435.27659    23.513156    22.167489    0.3993031     435.6759   -28.698401   -1971.6993 
    9800   -102527.82   -92867.983     234.5765    20724    226740.86    37.339518    141.55084   -157.17186    127.63957    435.23063     23.50728    22.161949   0.42228559    435.65291   -47.717263   -2021.8509 
    9900   -102521.61   -92875.409    234.24538    20724    226937.61   -28.358021   -116.32993   -200.61809    231.87395    435.36185    23.513933    22.168221   0.35667582    435.71852     -51.5693   -2000.8197 
   10000   -102486.81   -92922.829    232.24872    20724    226730.25   -35.581945   -125.87232   -125.53972     144.6662    435.16546     23.50849     22.16309   0.45487193    435.62033   -26.955532   -1985.5089 
   10100   -102529.64   -92925.963     233.2127    20724    226988.18    -4.671188     190.9097    37.779083   -242.70235    435.45493    23.514039    22.168321    0.3101371    435.76506   -9.9828646   -1994.5763 
   10200   -102582.77   -92889.936    235.37791    20724    227027.53   -2.9662106   -93.161705    134.15786   -49.894792    435.48172    23.515353     22.16956   0.29674089    435.77846   -25.281805   -2014.5442 
   10300   -102485.57   -92894.688    232.90217    20724    226801.27    48.114135    89.614096   -3.8699788    58.598287    435.23976    23.510165    22.164668   0.41771779    435.65748   -10.422091   -2033.1222 
   10400   -102431.48   -92840.248    232.91056    20724     226890.8   -1.8662939   -113.97222    94.639116    13.734222    435.52282    23.507162    22.161837    0.2761882    435.79901   -19.969858   -2076.1672 
   10500   -102479.59   -92829.203     234.3472    20724    226913.57    41.990008    114.81636   -203.13805    214.29171    435.51228    23.508626    22.163218   0.28145927    435.79374   -17.706737   -2089.4062 
   10600   -102412.73   -92834.473    232.59551    20724    226847.53    35.068072   -36.211903    321.87081   -180.45469    435.47996    23.506077    22.160815   0.29762158    435.77758   -26.842496   -2078.9867 
   10700   -102476.82   -92827.541    234.32012    20724    226779.11   -41.376787    51.783896    116.29612   -292.21038     435.1678     23.51096    22.165418   0.45370031     435.6215   -40.428022   -2072.2053 
   10800   -102481.44   -92785.031    235.46463    20724     226687.9   -66.650815    167.25448   -133.04978   -234.15715    435.29154     23.50289    22.157811   0.39183212    435.68337   -42.580373   -2114.5662 
   10900   -102430.67   -92740.815    235.30561    20724    226901.85   -46.602315   -13.471534   -148.52624     22.19083     435.3908    23.511298    22.165737   0.34219972      435.733     -41.3719    -2156.246 
   11000   -102430.68   -92725.399       235.68    20724    226641.17   -16.558599   -14.697475    2.7596775   -37.737999    435.12991    23.504832    22.159641   0.47264707    435.60255   -45.625892    -2178.027 
   11100   -102421.22   -92742.676    235.03081    20724    226690.94   -19.959821   -269.59145    39.373402    170.33858    435.22257     23.50491    22.159714   0.42631572    435.64888   -40.408043   -2164.8052 
   11200   -102491.48   -92755.387    236.42838    20724    226683.62   -30.713501   -48.893013   -206.93773    163.69025    435.11753    23.507368    22.162032   0.47883585    435.59636   -30.547167    -2163.192 
   11300    -102389.9   -92720.194    234.81619    20724    226545.07   -18.063423    92.810884   -2.2048326   -144.79632    434.98889    23.503657    22.158533    0.5431557    435.53204   -39.615001   -2195.4254 
   11400   -102272.13   -92672.223    233.12135    20724    226712.38   -32.828368    113.84217     4.102662   -216.42993    435.11316    23.508977    22.163549   0.48102009    435.59418   -49.173957   -2226.4985 
   11500   -102274.95   -92658.346    233.52666    20724     226778.9    68.395457   -242.21908    53.647547    393.75791    435.30252    23.507311    22.161978   0.38634212    435.68886   -41.117164   -2253.6436 
   11600    -102313.8   -92643.186    234.83831    20724     226673.2   -2.0090522    -45.62328   -61.850894    101.44702    435.07335     23.50802    22.162647   0.50092285    435.57428   -44.274884   -2268.0519 
   11700   -102323.55   -92643.361    235.07075    20724    226706.47   -78.440003   -169.29455   -106.36113    40.335667    435.00147    23.511688    22.166105   0.53686642    435.53833   -30.459057   -2277.4444 
   11800   -102373.19   -92668.051    235.67674    20724    226621.65   -31.501791    92.830199   -234.60224    47.266668    435.12853    23.503857    22.158722   0.47333661    435.60186   -22.578144   -2266.8637 
   11900   -102349.56   -92631.169    235.99835    20724    226592.22    3.5735171     142.0024   -172.52469    41.242835    435.16589    23.501322    22.156332    0.4546545    435.62055   -14.898969   -2314.3342 
   12000   -102314.71   -92602.341    235.85222    20724    226640.05     3.160605   -172.97537   -9.9637517    192.42093    434.86597    23.511906     22.16631    0.6046159    435.47058   -22.728124   -2337.3645 
   12100      -102296   -92587.712    235.75312    20724       226508  -0.13109306    116.02825    -21.68343   -94.738104    434.85157    23.505444    22.160218   0.61181401    435.46339   -18.285142   -2359.8181 
   12200   -102227.95   -92573.998    234.43372    20724    226471.89    5.4261347    4.1300942   -92.849943    104.99825    435.09184     23.49708    22.152333   0.49167828    435.58352   -16.424566   -2376.4547 
   12300    -102338.2   -92581.448    236.93005    20724    226422.48   -20.306389   -149.62736   -58.810268    147.51846    434.59954     23.50782    22.162458   0.73782951    435.33737   -30.317858   -2356.5249 
   12400   -102304.28   -92588.565    235.93338    20724    226627.44    30.435665    112.42245   -119.71755    98.602092     434.8536    23.511586    22.166009   0.61080186     435.4644   -7.8402659   -2370.9969 
   12500   -102289.35   -92608.551    235.08565    20724    226534.34     16.06653    65.983133    68.058947   -85.842491    434.89042    23.505761    22.160517   0.59239018    435.48281   -18.179739   -2343.4549 
   12600   -102329.11   -92558.274    237.27207    20724    226641.24   -42.236429   -65.365124    148.51063   -209.85479    434.97779    23.508945    22.163519   0.54870523    435.52649   -20.890941   -2384.8034 
   12700   -102299.47   -92562.948    236.43887    20724    226464.29   -40.696113   -30.216278   -286.02732    194.15526    434.73635    23.506291    22.161016   0.66942489    435.40578   -8.1792378   -2399.1667 
   12800   -102226.89   -92506.697    236.04223    20724    226599.26   -52.753349   -109.17494   -214.77387    165.68876    434.92564    23.508177    22.162795   0.57478133    435.50042   -23.745627   -2436.0939 
   12900   -102201.27   -92504.923    235.46322    20724    226697.14    37.423918    28.829228    59.974014    23.468511    434.97906     23.51181     22.16622   0.54807006    435.52713   -30.097088   -2434.7423 
   13000   -102198.84   -92491.167    235.73821    20724    226601.69    91.017244    229.79959   -84.284385    127.53653    434.90817    23.508775    22.163359   0.58351738    435.49168   -40.031802   -2443.1111 
   13100   -102243.73   -92496.127    236.70795    20724    226576.96     -28.2271     70.15981   -50.858957   -103.98215    435.00758    23.504806    22.159617   0.53381029    435.54139   -14.904906   -2461.1753 
   13200   -102222.02   -92473.752    236.72397    20724    226698.95    31.235311   -5.1813259     248.1434   -149.25614    435.02728      23.5106    22.165079   0.52396143    435.55124   -23.097215   -2475.5021 
   13300   -102234.55   -92490.783    236.61461    20724    226621.81   -7.8368941      40.6891   -174.80538     110.6056    434.92779    23.509289    22.163843   0.57370631    435.50149   -7.6664279   -2474.2338 
   13400   -102250.88    -92454.57     237.8907    20724    226750.69   -15.067991     77.77864    28.354051   -151.33666     434.7946    23.519574    22.173539   0.64030055     435.4349   -24.931749   -2490.6648 
   13500   -102188.97   -92464.855    236.13749    20724     226557.7   -4.1364852   -44.848013   -131.32783    163.76639    434.90616    23.506547    22.161258    0.5845183    435.49068   -9.4509613   -2503.4166 
   13600   -102187.76   -92439.027    236.73528    20724    226595.84    55.989964    17.867272    36.048941    114.05368    434.98132    23.506495    22.161209   0.54693906    435.52826     1.315154   -2541.5477 
   13700   -102170.76   -92365.423    238.10979    20724    226508.05   -100.49491   -253.84057    131.62859   -179.27277    435.12989    23.497928    22.153132   0.47265603    435.60254    -22.01344    -2587.816 
   13800    -102116.9   -92394.091    236.10584    20724    226666.78    83.959613    101.41549    343.79519   -193.33184    435.09705    23.507047     22.16173   0.48907426    435.58613   -9.4134057   -2577.8883 
   13900   -102215.22   -92431.732    237.57937    20724    226544.74   -45.604249   -96.350092      12.1328   -52.595457    434.98412    23.503769    22.158639   0.54554197    435.52966  -0.84931475   -2547.2496 
   14000   -102074.85   -92388.691     235.2157    20724    226502.62    43.562432     180.8698   -22.903304   -27.279202    435.02699    23.500426    22.155487   0.52410611    435.55109    1.4894937   -2598.1592 
   14100   -102029.67    -92343.32    235.22033    20724    226266.63    17.100078    36.317732     61.82556   -46.843058    434.97476     23.48959    22.145271   0.55021781    435.52498   -21.213214   -2625.0199 
   14200   -102079.01   -92350.727    236.23862    20724    226479.31   -56.523621   -173.28287   -142.93097    146.64298    434.94773    23.501357    22.156365   0.56373362    435.51147   -11.006585   -2619.8468 
   14300   -102139.87   -92324.921    238.34314    20724    226443.21    1.4813461   -13.848879   -179.76791    198.06082    434.93549    23.499815    22.154911   0.56985272    435.50535   -12.922396   -2649.3167 
   14400   -102188.33   -92318.822    239.66802    20724    226422.43    8.2032041   -120.27438   -82.513538    227.39753    434.89607    23.499802    22.154899   0.58956548    435.48563   -11.283385   -2660.9023 
   14500   -102107.82    -92264.53    239.03151    20724    226431.34   -28.617739   -115.21322    7.0886361    22.271363     434.8983    23.500204    22.155278   0.58844838    435.48675   -18.896021   -2705.3279 
   14600   -102110.78   -92298.337    238.28241    20724    226486.13   -88.146841   -41.542126    159.29004   -382.18844    434.99037    23.500559    22.155613   0.54241735    435.53278     -18.9454   -2667.6026 
   14700   -102054.51   -92262.965     237.7748    20724     226412.7   -50.099903    65.284979   -109.31701   -106.26768    434.98527    23.496887    22.152151   0.54496732    435.53023   -23.874364    -2701.527 
   14800   -102134.76   -92328.352    238.13584    20724    226602.11     42.66677     150.6228   -222.84641    200.22392    435.16446    23.501873    22.156852   0.45536873    435.61983   -14.954548   -2647.0156 
   14900   -102113.47   -92331.082    237.55252    20724    226509.06    27.569945   -50.730283     128.7464     4.693717    435.02796    23.500734    22.155777     0.523621    435.55158   -36.015298   -2625.8362 
   15000   -102041.23   -92304.454     236.4449    20724    226618.61    46.857257   -171.99491    49.237928    263.32875    434.72259    23.514671    22.168917   0.67630665    435.39889   -19.571296   -2669.3738 
   15100    -102067.9   -92327.408     236.5351    20724    226571.57    55.043171    216.44533    55.703112   -107.01893    434.82566    23.509443    22.163988   0.62477113    435.45043   -15.887766   -2650.0988 
   15200   -102188.78   -92316.109    239.74498    20724    226608.37   -35.362679   -84.252365    88.625429    -110.4611     435.0428    23.505484    22.160255   0.51619967      435.559    2.7541996   -2677.9613 
   15300   -102080.28   -92290.013    237.74392    20724     226420.9   -30.120748   -94.700445   -127.83816    132.17636    434.89618    23.499719    22.154821   0.58950824    435.48569     8.809304   -2715.4789 
   15400   -102091.53   -92287.921    238.06785    20724    226590.04   -23.542881   -104.34155   -159.25442    192.96733    435.01788    23.505206    22.159994   0.52866114    435.54654    12.716336   -2718.3012 
   15500   -102116.81   -92274.386    239.01048    20724    226673.95   -53.301788   -125.94401    208.74236   -242.70372    435.05296     23.50861    22.163203   0.51111998    435.56408    26.592528   -2742.1872 
   15600   -102056.01   -92292.398    237.09648    20724     226595.2    15.538202    26.881815    116.85987   -97.127085    434.92039    23.508108     22.16273   0.57740373     435.4978    18.170326   -2723.2999 
   15700    -102019.5   -92293.273    236.18886    20724    226536.49    6.5246407   -143.85542   -138.61534    302.04468     435.0052    23.502771    22.157698   0.53500032     435.5402    1.3252018   -2708.0899 
   15800   -101982.89   -92242.173    236.54072    20724    226407.64    72.429786   -72.558323    208.77891    81.068769    435.01568    23.495803    22.151129   0.52975878    435.54544    3.2047609   -2768.5539 
   15900   -102033.48   -92210.624     238.5352    20724    226518.28    7.1360784    56.305604    6.0115902   -40.908959    435.12119    23.498694    22.153854    0.4770042     435.5982     6.782412   -2799.0601 
   16000   -102078.02   -92225.364    239.25893    20724    226479.96   -30.780303   -103.36924    165.46581   -154.43748    434.99747    23.500048     22.15513   0.53886552    435.53633    12.194545   -2790.9869 
   16100   -102072.95   -92203.247    239.67299    20724    226521.85   -54.199728    33.492326   -80.396783   -115.69473    434.91395    23.504477    22.159307   0.58062568    435.49457    15.692406   -2815.2854 
   16200   -101983.96   -92205.201    237.46439    20724    226416.74    8.3163032    210.48782     -44.8857   -140.65321    435.15908    23.492404    22.147924   0.45805759    435.61714    30.809727   -2832.7357 
   16300   -102111.34   -92178.326    241.21037    20724     226373.9   -99.349021   -319.56434    32.844359   -11.327083    434.98697    23.494828     22.15021   0.54411685    435.53108     35.67942   -2862.6853 
   16400   -101975.16   -92124.065    239.22097    20724    226496.54   -50.897885   -81.599521   -85.336308    14.242174    434.92184    23.502951    22.157868    0.5766815    435.49852    25.545151   -2907.7281 
   16500   -101981.83   -92153.216    238.67499    20724    226530.15   -9.8152449   -76.412875    -260.1505    307.11764    434.84343    23.506814     22.16151   0.61588706    435.45931    11.980473   -2867.1028 
   16600   -102019.81   -92142.788    239.85066    20724    226385.08   -61.475696    8.7910964    20.247928   -213.46611    435.00355     23.49496    22.150334   0.53582665    435.53937    37.671553   -2904.9061 
   16700   -101972.12   -92119.835    239.24982    20724    226412.61    24.593635    2.8946081    129.73586   -58.849563     434.8516    23.500493    22.155551   0.61179796     435.4634      40.8902   -2935.6074 
   16800   -101928.48   -92145.885    237.55756    20724     226381.2   -47.928323   -44.657344    257.70665   -356.83427    434.89334    23.497736    22.152951   0.59092927    435.48427    58.737297   -2925.2666 
   16900   -102011.96   -92172.008     238.9504    20724    226161.84    -34.28508     -8.81828   -286.19655    192.15959    434.70956    23.491313    22.146896   0.68282134    435.39238    43.771481    -2891.939 
   17000   -102001.09   -92186.209    238.34155    20724    226211.34    64.616565    195.89838   -181.42203    179.37335    434.61351    23.496479    22.151766   0.73084747    435.34435    61.763059   -2898.9908 
   17100   -101952.19   -92162.863    237.72095    20724    226303.88     28.01125    40.073663  -0.14663743    44.106723    434.85513    23.494755    22.150141   0.61003466    435.46517    30.288024    -2888.606 
   17200   -101982.86   -92143.457    238.93715    20724    226484.54    25.900802   -91.967095     55.49011    114.17939    434.85218    23.504211    22.159055   0.61150895    435.46369    45.242907   -2919.0263 
   17300   -101953.48   -92135.219    238.42373    20724    226140.63    46.630469   -80.828441    11.865973    208.85388    434.65973    23.491557    22.147126   0.70773513    435.36746    45.769336   -2940.7328 
   17400   -101977.78   -92137.935    238.94791    20724     226395.6    64.624838    26.478946   -23.300639    190.69621    434.69301    23.503897     22.15876   0.69109721     435.3841    44.836958   -2929.6204 
   17500   -101949.14   -92153.468    237.87505    20724    226300.51    27.923077   -137.24344    195.78578    25.226894    434.68314    23.499227    22.154357   0.69602766    435.37917     28.41765   -2899.7345 
   17600    -101913.1   -92139.362    237.34259    20724    226306.59    21.141646    214.72291    23.823271   -175.12124    434.72082    23.498525    22.153695   0.67719009    435.39801    45.503839   -2931.0779 
   17700   -101963.92   -92124.836    238.92933    20724    226242.81   -2.7130305    28.416004    181.23458   -217.78967    434.53837    23.500145    22.155222   0.76841493    435.30679    37.346824   -2939.6887 
   17800   -101886.29   -92085.939    237.98876    20724    226297.47    32.143646    17.084609    70.852194    8.4941342    434.42452    23.506063    22.160802   0.82534058    435.24986    40.833185   -2980.7196 
   17900   -101899.44   -92079.146    238.47304    20724    226326.21    31.455954    215.48457    124.05241   -245.16912    434.30863    23.510692    22.165166   0.88328427    435.19192    43.004085   -2990.6215 
   18000   -101816.82   -92032.182    237.60718    20724    226184.75   -34.653844    21.408628   -170.88392    45.513759    434.56837    23.496318    22.151615   0.75341635    435.32178    13.909891   -3010.2881 
   18100   -101892.89   -91985.794     240.5808    20724    226351.29   -23.549429   -16.874485   -42.716547   -11.057254    434.55255    23.505395    22.160172    0.7613265    435.31387   -16.706411   -3024.7947 
   18200   -101806.55   -91995.629    238.24554    20724    226200.65    19.979804   -1.3675122   -56.940165    118.24709     434.4122    23.501368    22.156375   0.83150135     435.2437     17.59759   -3055.5582 
   18300   -101884.26   -91959.501    241.00983    20724    226298.11    71.468025    120.94779    111.83619     -18.3799    434.51972    23.503522    22.158406   0.77774223    435.29746   -5.1139833   -3068.7694 
   18400   -101823.03   -91965.871    239.36835    20724    226103.67    -42.72302    39.930089    175.33615    -343.4353    434.31066    23.499075    22.154214   0.88226824    435.19293   -4.7442158   -3065.2767 
   18500   -101824.63   -91904.411    240.89953    20724    226426.18   -20.584388    209.49282    8.8673305   -280.11332     434.4075    23.513208    22.167538   0.83385202    435.24135    -17.88918   -3107.8358 
   18600   -101827.55   -91917.733    240.64701    20724    226193.58    23.893452   -48.139283   -107.90379    227.72343    434.18758    23.507079    22.161759   0.94380926    435.13139    -28.24741   -3093.3776 
   18700    -101845.3   -91902.661    241.44407    20724    226287.72     72.06373    210.27317    -119.9537    125.87172    434.45369    23.504768    22.159581   0.81075289    435.26445   -17.584279   -3121.2832 
   18800   -101783.08   -91906.877    239.83083    20724     226179.6   -101.79962   -75.582061   -115.64436   -114.17243    434.35521    23.501816    22.156797    0.8599929    435.21521   -9.3268723   -3118.3068 
   18900   -101749.98   -91883.117    239.60391    20724    226242.11   -24.576435   -134.12079    42.477157    17.914328    434.35563    23.505052    22.159848   0.85978536    435.21541   -13.270361   -3141.0775 
   19000   -101784.18    -91832.47    241.66424    20724    226318.59    44.476462    28.946953     20.95746    83.524974    434.17255     23.51398    22.168266   0.95132712    435.12387   -27.475162   -3180.8507 
   19100   -101752.21   -91832.072    240.89758    20724    226209.18    41.919601    -30.78266     10.14325    146.39821    434.18913    23.507847    22.162483   0.94303624    435.13216   -7.7364596   -3203.5949 
   19200   -101760.17   -91864.473    240.30404    20724       226182    32.131388    35.475802   -16.148427    77.066788    434.32621    23.502725    22.157654   0.87449543     435.2007   -2.6699368   -3177.6597 
   19300   -101660.02   -91767.017    240.23867    20724    226325.18    4.4277527    -22.39969    117.17359   -81.490643    434.40264    23.508094    22.162717   0.83627856    435.23892   -14.592118   -3257.2306 
   19400   -101744.21   -91794.803     241.6084    20724    226212.19    13.925685   -124.39712   -59.672614    225.84679    434.37688    23.502922    22.157841   0.84915936    435.22604   -6.0220456   -3244.6626 
   19500   -101704.53   -91816.047    240.12882    20724    226328.89   -41.699242   -131.41762     120.1509     -113.831    434.29814    23.511115    22.165565    0.8885306    435.18667    -1.381623   -3223.1013 
   19600   -101713.68   -91796.268    240.83132    20724    226304.33   -1.5978448     74.23873    -115.4203    36.388039    434.36742    23.507965    22.162594   0.85389012    435.22131   0.87577989   -3249.1795 
   19700    -101781.4   -91807.537     242.2023    20724    226300.38   -54.596288   -144.54733   -385.73483    366.49329    434.30494     23.50945    22.163995   0.88512948    435.19007    25.131112   -3259.6456 
   19800   -101737.88   -91724.715    243.15672    20724    226448.76   -39.130131    -22.35876   -246.23645    151.20482    434.14524    23.521481    22.175337   0.96497996    435.11022     4.144447   -3323.0163 
   19900   -101685.85   -91760.175    241.03204    20724    226224.09   -57.919686   -322.45603   -192.37808    341.07505    434.11181    23.510715    22.165187   0.98169428    435.09351    9.5274965   -3297.8809 
   20000   -101769.82   -91764.615     242.9633    20724    226251.92   -53.621652    21.493195    133.07918   -315.43733    434.20981    23.509508    22.164049   0.93269645     435.1425    3.2189413   -3289.7471 
   20100   -101766.25   -91804.218    241.91501    20724    226277.02   -33.293379    26.612546    136.14356   -262.63625    434.17654    23.511712    22.166128   0.94932889    435.12587    31.266934   -3278.6005 
   20200   -101737.18   -91790.126    241.55122    20724       226193   -28.081413    136.48719    155.41182   -376.14325    434.27853    23.504587     22.15941   0.89833387    435.17687    29.250037   -3294.6602 
   20300   -101723.95   -91775.185    241.59275    20724    226143.16   -97.430337    4.9120808    44.442037   -341.64513     434.1189    23.506317    22.161042   0.97814763    435.09705    38.395986   -3318.5137 
   20400   -101778.63   -91775.996    242.90085    20724    226092.31   -83.012631   -108.93212   -17.728312   -122.37746    433.93454    23.508667    22.163257     1.070332    435.00487    33.792686   -3316.5501 
   20500      -101681    -91740.68    241.38768    20724    226192.85    16.134111   -55.360645    65.975094    37.787883    434.27572    23.504655    22.159474   0.89974222    435.17546    21.319082   -3342.0293 
   20600   -101669.77   -91722.775    241.54987    20724     226189.7   -122.15992   -161.76474   -48.843984   -155.87104    434.09564    23.509366    22.163915   0.98977776    435.08542    33.850915   -3367.8536 
   20700   -101628.63   -91711.304     240.8293    20724    226241.32     7.865825   -270.28343    184.27995    109.60095    434.00986    23.514372    22.168635    1.0326701    435.04253    12.784324   -3361.6634 
   20800   -101606.62   -91740.834    239.57779    20724    226138.14    11.445516    183.55218    61.584407   -210.80004    433.88419    23.512414    22.166789    1.0955052    434.97969     28.39006   -3354.5968 
   20900   -101717.31   -91750.423    242.03286    20724    226055.44    20.482942   -77.817205    135.30774    3.9582914    433.90175    23.507638    22.162287    1.0867255    434.98847    25.989511   -3346.6067 
   21000    -101608.3   -91723.966    240.02817    20724    226218.23   -22.019683    27.307936   -85.707199   -7.6597857    433.89249    23.516352    22.170502    1.0913532    434.98385    49.535888   -3388.8039 
   21100   -101698.04   -91704.473    242.68064    20724    226247.42   -60.505973   -19.563266   -80.401396   -81.553258    434.30967    23.506571     22.16128   0.88276433    435.19244    31.013659    -3388.585 
   21200   -101644.89   -91737.636    240.58465    20724    226139.84   -41.181336    184.32914   -19.115006   -288.75814    434.20816    23.503729    22.158601   0.93351855    435.14168    45.906055    -3375.012 
   21300    -101566.8   -91701.344     239.5697    20724    226486.45    134.09398    156.16908    148.21873    97.894125    434.57159    23.511897    22.166301   0.75180709    435.32339    27.594363   -3392.7188 
   21400   -101632.68   -91684.546    241.57736    20724    226290.69   -5.1436858    83.299588    64.576529   -163.30717    434.60387    23.500861    22.155897   0.73566554    435.33953    16.810097   -3400.6169 
   21500   -101640.46   -91663.031    242.28875    20724    226313.77   -88.125034   -226.65958    1.0869962   -38.802521    434.61192    23.501841    22.156821    0.7316398    435.34356    19.004027   -3418.1396 
   21600   -101743.29   -91704.226    243.78556    20724    226442.82   -21.837312   -75.870014    167.21453   -156.85646    434.55206     23.51016    22.164664    0.7615689    435.31363    39.607067    -3401.124 
   21700   -101549.52   -91715.366    238.80963    20724     226252.6    87.171735    55.310566   -60.580225    266.78486    434.65174    23.497588    22.152812   0.71172977    435.36347    31.876289   -3391.0439 
   21800   -101599.28    -91615.98    242.43133    20724    226532.15   -0.5633069   -131.88004   -39.991865    170.18198    434.47826    23.516794    22.170918   0.79846999    435.27673    12.554766    -3462.624 
   21900   -101634.41   -91685.209    241.60328    20724    226501.38    37.090353    252.70432   -135.37353   -6.0597326    434.51559    23.514187     22.16846   0.77980475     435.2954    38.348117   -3423.1061 
   22000   -101619.58   -91653.166    242.02142    20724    226398.15   -23.059752   -82.671409    41.231923    -27.73977    434.69094    23.504085    22.158937   0.69212782    435.38307    26.395788   -3443.9627 
   22100   -101631.24   -91607.358    243.41689    20724    226159.77   -22.079187   -95.953248   -38.459725    68.175413    434.58498    23.494572    22.149968   0.74510755    435.33009     32.43243   -3503.5055 
   22200   -101546.25   -91631.234    240.77317    20724    226124.06    49.543307    41.698824   -41.917511    148.84861    434.53082    23.494181    22.149599   0.77218923    435.30301    23.756805   -3475.5536 
   22300   -101562.49   -91608.635    241.71642    20724    226373.83    43.625778   -47.098728    57.105407    120.87066    434.67798    23.503173    22.158077   0.69860866    435.37659    21.917163   -3490.8471 
   22400    -101608.5   -91628.903    242.34145    20724    226270.28    36.200208    168.00517    41.495168   -100.89971    434.42797    23.504558    22.159382   0.82361334    435.25159    40.355408   -3492.3674 
   22500   -101582.17   -91597.571    242.46297    20724    226325.37    50.995393    187.05433   -71.657917    37.589771    434.67293    23.500794    22.155834    0.7011338    435.37407    26.287741   -3511.5593 
   22600   -101692.83   -91632.961    244.29076    20724    226405.43   -52.263736   -128.92272    124.03471    -151.9032    434.61602    23.506489    22.161203   0.72959233    435.34561    46.675969   -3491.2366 
   22700      -101561   -91657.687    240.48896    20724    226245.59   -45.333498   -193.86823    76.052697   -18.184958    434.51682    23.500872    22.155908   0.77919163    435.29601    47.653516   -3472.7115 
   22800   -101628.19   -91616.983    243.10921    20724    226465.49    43.941437    213.07211   -314.96796    233.72017    434.43258     23.51457    22.168821   0.82130774    435.25389     47.14731   -3511.9825 
   22900   -101670.93   -91652.238    243.29081    20724    226426.21    9.4915186    98.437587   -149.22892    79.265892    434.79944    23.502609    22.157545   0.63787952    435.43732    77.330833   -3508.4755 
   23000   -101626.26   -91649.874    242.26352    20724    226331.04   -58.291884   -237.42869    112.39305   -49.840015     434.5352    23.504813    22.159623   0.76999936     435.3052    68.479773   -3500.4762 
   23100   -101652.97   -91609.594    243.89025    20724    226405.01   -28.841796    50.389035   -214.18923    77.274806    434.73701    23.503196    22.158099   0.66909505     435.4061    50.213152   -3526.6071 
   23200   -101490.61   -91580.489    240.65444    20724    226260.46    9.3550401    108.09679    48.251985   -128.28365    434.36768    23.505679     22.16044   0.85376158    435.22144    48.463154   -3558.1918 
   23300   -101552.25   -91586.754    241.99907    20724    226529.21    75.348434    243.32256    177.05913   -194.33638     434.6013    23.513313    22.167636   0.73695157    435.33825    59.335799   -3561.1383 
   23400   -101556.87   -91595.292    241.90393    20724    226432.23    8.2285403    200.20291   -245.55155    70.034263    434.82637    23.502194    22.157154     0.624417    435.45078    68.934968   -3561.6738 
   23500   -101521.99   -91597.312    241.00796    20724    226290.91    19.497109   -243.30335    19.435343    282.35933    434.76471    23.496524    22.151809   0.65524419    435.41996    61.328494   -3557.0279 
   23600   -101653.77    -91604.47    244.03413    20724    226416.39  -0.70739631      91.3095   -273.35417    179.92248    434.89612    23.499487    22.154602   0.58953877    435.48566    48.781372   -3535.3261 
   23700   -101563.33   -91573.845    242.58155    20724     226258.5   -56.145507   -286.04862   -105.48416    223.09626     434.9001    23.491184    22.146774   0.58754818    435.48765    62.311577    -3583.003 
   23800   -101561.43   -91593.476    242.05875    20724    226346.88   -10.142153    177.72197   -100.40941   -107.73902     434.8975    23.495842    22.151166   0.58885163    435.48635     57.95464   -3560.5728 
   23900    -101569.1   -91562.011    243.00917    20724    226291.55    77.335875    -15.80648    438.61457   -190.80047     434.7099    23.498039    22.153237   0.68264834    435.39255    65.914444   -3609.0139 
   24000   -101617.73   -91541.129    244.69716    20724    226406.37   -94.953111   -63.233402   -174.13529   -47.490642    434.88027    23.499395    22.154515   0.59746283    435.47774    67.624961   -3619.6875 
   24100   -101563.29   -91608.779    241.73231    20724    226175.87   -2.7215464    129.41359   -56.261413   -81.316815    434.64217    23.493863    22.149299    0.7165156    435.35868    75.122725    -3569.939 
   24200    -101483.1    -91591.19    240.21203    20724    226415.33    50.074285    47.657799    165.24644    -62.68138    434.74843    23.503423    22.158313   0.66338633    435.41181    58.293457    -3567.065 
   24300   -101518.03   -91580.502    241.31986    20724    226254.68    -5.638613   -138.74317    149.62743   -27.800105     434.5152    23.501388    22.156394   0.77999837     435.2952    59.132707   -3584.4167 
   24400   -101597.03   -91586.685     243.0883    20724    226232.67   -14.124134    62.877411   -187.60545    82.355638    434.54339    23.499483    22.154598    0.7659074    435.30929    65.006829   -3582.8968 
   24500   -101521.23   -91574.435    241.54484    20724     226186.7    119.22287    122.77283    175.06454    59.831231    434.23345    23.505479    22.160251   0.92087607    435.15432    47.049295   -3585.8019 
   24600   -101542.43   -91526.233    243.23039    20724    226166.24    -18.35739   -182.04608    147.36781   -20.393903    434.15179    23.506626    22.161333   0.96170307     435.1135    53.440432   -3637.3229 
   24700   -101446.17   -91545.358    240.42836    20724    226314.64    7.8520914   -30.351375    117.58124   -63.673594    434.18478    23.513444     22.16776   0.94521086    435.12999    47.445723   -3609.6418 
   24800   -101573.66   -91549.554    243.42233    20724    226240.11    -24.77711    2.1163398   -29.883648   -46.564021    434.25515    23.507667    22.162314    0.9100264    435.16517    33.279908   -3594.4095 
   24900   -101507.49    -91602.61    240.52715    20724    226169.83     20.55735     6.494558    122.89411   -67.716616    434.50996    23.497123    22.152373   0.78262249    435.29258    39.999879   -3551.2406 
   25000   -101592.66   -91564.657     243.5171    20724    226171.43   -7.2057563    -281.7691    336.64409   -76.492258    434.34307     23.50172    22.156707   0.86606404    435.20914    27.952464   -3577.1399 
   25100   -101500.29   -91575.399    241.01317    20724     226249.3    73.746236    64.582747   -108.55533     265.2113    434.26889    23.507773    22.162413   0.90315638    435.17204     26.39714   -3567.1915 
   25200   -101514.87   -91548.517    242.01997    20724    226244.79   -25.115621   -14.515022   -51.935993   -8.8958478    434.22231    23.508799    22.163381   0.92644322    435.14876    38.874935   -3602.4186 
   25300   -101538.61    -91530.61    243.03127    20724    226207.64   -58.904012   -144.51086    172.06898   -204.27016    434.04987    23.511538    22.165963    1.0126656    435.06253    9.9206689   -3592.8411 
   25400   -101432.38   -91552.352    239.92368    20724    226010.16    75.341793    136.47072   -26.590095    116.14476    434.04489    23.501407    22.156412    1.0151528    435.06005    37.188563   -3611.3882 
   25500   -101403.06   -91532.735    239.68807    20724    226281.67    20.409705   -83.911316      205.759   -60.618573    434.02507    23.516057    22.170223    1.0250645    435.05014    18.718256   -3602.3165 
   25600   -101576.37   -91565.562     243.0994    20724    225974.55   -85.902833   -134.61992    177.39665   -300.48523    433.62958    23.510807    22.165274    1.2228124    434.85239    24.827709   -3581.6619 
   25700    -101502.6   -91540.813     241.9091    20724    225992.13    29.020097    49.765211   -130.21271    167.50779    433.60669    23.512342    22.166721    1.2342565    434.84094    17.393983   -3605.0836 
   25800   -101534.31   -91501.988    243.62199    20724    226024.41    35.402676   -18.245616   -128.54955    253.00319    433.80107    23.508752    22.163337    1.1370636    434.93814    25.606519   -3653.3097 
   25900   -101465.28   -91502.662    241.92908    20724    225815.51    93.384466    100.46383    106.09689    73.592674    433.59217    23.503546    22.158428    1.2415128    434.83369    33.629252   -3669.6674 
   26000   -101483.64    -91422.25    244.32772    20724    226016.26   -46.152831   -25.273805    119.37818   -232.56287    433.80929    23.508106    22.162728    1.1329562    434.94224    29.185142    -3734.558 
   26100   -101359.64   -91439.561    240.89618    20724    225906.05    40.753323    164.86944    293.97421   -336.58368    433.61697    23.507585    22.162236     1.229117    434.84608    13.605138   -3709.6565 
   26200   -101552.94   -91408.791    246.33741    20724    225877.65   -61.802509     -86.0693   -53.560537    -45.77769    433.39084    23.512239    22.166624    1.3421786    434.73302    -10.94361    -3714.851 
   26300   -101475.63   -91380.162    245.15527    20724    225849.04   -92.341195    13.440384   -143.16238   -147.30158    433.75493     23.50088    22.155915    1.1601364    434.91506     -25.4966   -3727.7472 
   26400   -101359.88   -91361.498    242.79773    20724    225854.01    113.63456    168.79786   -4.2183371    176.32415    433.58909    23.505633    22.160396    1.2430555    434.83214   -7.9074617   -3773.5903 
   26500   -101331.87   -91343.742    242.54874    20724    225950.52   -49.712203   -19.406414   -252.02003    122.28983    433.68037     23.50818    22.162797    1.1974145    434.87779    8.5562605   -3798.9991 
   26600   -101323.65   -91269.288    244.15698    20724    225956.87    41.912427    46.485178    11.217545    68.034559     433.7506    23.506607    22.161315    1.1622979     434.9129   -47.185103   -3822.9149 
   26700   -101322.56    -91284.77    243.75476    20724    225959.72    8.8453605    103.41879    43.331417   -120.21413    433.80666    23.505236    22.160022      1.13427    434.94093   -5.4608875   -3848.3444 
   26800   -101478.44   -91289.966    247.41391    20724    225896.98   -157.23919   -205.30736    44.571322   -310.98155    433.89056    23.499701    22.154803    1.0923183    434.98288   -16.133728   -3828.5995 
   26900   -101370.64    -91300.22    244.54708    20724    225976.61  -0.79583354   -56.380492    203.07518   -149.08219    433.61731    23.511247    22.165688    1.2289439    434.84626   -22.993382   -3815.9956 
   27000    -101393.8   -91270.768    245.82457    20724    225962.82    24.090904   -55.500474    268.69496   -140.92177    433.64802    23.509696    22.164227    1.2135905    434.86161    -25.20787   -3846.3025 
   27100    -101403.8   -91286.449    245.68678    20724    226056.09   -17.687304   -107.58413    43.854385    10.667838    433.72957    23.512337    22.166717    1.1728128    434.90239   -23.943001   -3829.4872 
   27200   -101310.54   -91290.162    243.33183    20724    225964.44   -14.238476   -174.07673   -246.74674    378.10805    433.65917    23.509479    22.164022    1.2080157    434.86718    -16.30786   -3836.2089 
   27300   -101309.52   -91222.758    244.94379    20724     225785.5    3.0428759   -66.978027   -63.960326    140.06698     433.3963    23.507294    22.161962    1.3394522    434.73575     -26.8599    -3900.176 
   27400   -101389.76   -91271.969    245.69742    20724    225830.68   -35.103019   -122.87121    107.24927   -89.687121    433.38954    23.509829    22.164352    1.3428292    434.73237   -17.942307   -3858.4358 
   27500   -101276.38   -91257.813    243.28778    20724    225725.99    98.663966    214.50384    243.15731   -161.66925    433.29998    23.506808    22.161504     1.387608    434.68759   -16.749141   -3884.1613 
   27600    -101268.5   -91254.055    243.18769    20724    225501.16   -143.71836   -123.38539   -264.40326   -43.366436    433.32208    23.494499    22.149899    1.3765578    434.69864    1.0261827     -3900.67 
   27700   -101349.39   -91230.616    245.72135    20724    225761.99    43.316536    139.48411   -144.46001    134.92551    433.41655    23.505521     22.16029    1.3293252    434.74587     3.018839   -3929.6393 
   27800   -101431.77   -91251.417    247.21656    20724    225926.58   -76.916376   -233.48757   -97.472174    100.21061    433.26453    23.518213    22.172256    1.4053353    434.66986    14.943527   -3911.9143 
   27900   -101319.83   -91233.991    244.92157    20724    225688.98   -105.14365   -30.802019   -292.65444    8.0255168    433.07732    23.510922    22.165383    1.4989402    434.57626    2.8233416   -3923.8694 
   28000   -101345.67   -91248.002    245.20868    20724    225876.12    74.448286    246.76421   -316.92318    293.50383    433.36609     23.51283    22.167182    1.3545559    434.72064    15.150746   -3925.4999 
   28100   -101258.45   -91228.361    243.56753    20724    225669.86   -19.991229   -10.787786    9.7704697    -58.95637    433.17116     23.50738    22.162043    1.4520198    434.62318    4.4371378    -3935.175 
   28200   -101303.15   -91243.289    244.29067    20724    225820.56    43.960608    227.97692    158.47802   -254.57311    433.39352    23.509195    22.163754    1.3408417    434.73436    24.058695   -3941.7639 
   28300   -101317.93   -91223.349    245.13383    20724    225675.01   -57.120299   -12.476371   -89.802808   -69.081719    433.05286    23.510859    22.165323    1.5111712    434.56403     24.55138   -3962.9134 
   28400      -101380    -91189.64     247.4595    20724    225732.31    16.020302    4.1832252    141.75111   -97.873429    432.92218    23.517392    22.171482    1.5765107    434.49869   -1.2938201   -3974.5919 
   28500   -101267.08   -91177.273    245.01779    20724    225787.81   -43.148465     65.83101   -86.268288   -109.00812    433.17329    23.513465     22.16778    1.4509568    434.62424   -7.2697214   -3978.5884 
   28600    -101185.3   -91119.964    244.42354    20724    225727.72   -3.3654865    171.59946   -158.27755    -23.41837    433.22759    23.508862     22.16344    1.4238062    434.65139    -26.35095   -4021.1046 
   28700   -101305.85   -91116.311    247.43979    20724    225933.53   -69.858342   -154.27115    -241.7348    186.43092    433.13971    23.521963    22.175791    1.4677462    434.60745   -32.617114   -4014.1781 
   28800   -101163.87   -91114.075    244.04625    20724    225730.16   -25.570412   -11.957622     108.0319   -172.78551     432.8838    23.518322    22.172359    1.5956994     434.4795  -0.25661672   -4055.7402 
   28900      -101368   -91142.323     248.3173    20724    226041.47    -47.36964   -14.411154    194.88813   -322.58589    433.57325    23.515815    22.169995    1.2509747    434.82423   -13.513751   -4006.6046 
   29000   -101256.61   -91133.571    245.82478    20724    225916.88    60.259196    135.58019    39.668909    5.5284845    433.30821    23.516522    22.170662    1.3834933    434.69171   -23.224548   -4014.1259 
   29100   -101258.12   -91094.034     246.8217    20724    225834.53   -76.436307   -96.597479   -219.44837    86.736925    433.60978    23.504058    22.158912    1.2327122    434.84249   -14.092678    -4061.524 
   29200   -101300.21   -91094.261    247.83816    20724    226186.79   0.14715964   -56.601566    164.91818   -107.87514    433.72979    23.519127    22.173118    1.1727051    434.90249    -15.57135   -4056.0424 
   29300   -101284.63   -91077.751    247.86078    20724    226084.24   -5.8039307   -47.317706   -102.39799    132.30391    433.71733    23.514133     22.16841    1.1789334    434.89627   -10.771078   -4080.8926 
   29400    -101283.8   -91045.225    248.63042    20724    225966.25   -74.478542   -103.65079   -251.21651    131.43167    433.68299    23.508927    22.163502    1.1961037     434.8791   -27.896953   -4096.2988 
   29500   -101298.12   -91041.825    249.06073    20724    225976.87    12.247148   -58.484653    125.84084   -30.614748    433.89986    23.503603    22.158483    1.0876695    434.98753    -31.31942   -4100.4916 
   29600   -101154.17   -91029.594    245.86225    20724    225895.06   -16.249876    12.867802    93.932148   -155.54958     433.5336    23.509273    22.163828    1.2707984     434.8044   -40.576948   -4102.7988 
   29700   -101237.79   -91069.383    246.92653    20724    225977.54   -25.423208   -6.2448649   -15.544403   -54.480356    433.56009    23.512846    22.167197    1.2575552    434.81764   -31.154478   -4072.4965 
   29800   -101196.93   -90986.891    247.93745    20724    226015.68    33.150302    33.215059    216.57976   -150.34391    433.51366     23.51609    22.170254    1.2807701    434.79443   -62.116669   -4126.4629 
   29900   -101221.56   -91016.331    247.82059    20724    226005.96   -86.257778    41.837859   -67.590164   -233.02103    433.46975    23.516775    22.170901    1.3027244    434.77248   -51.563681   -4103.1323 
   30000   -101291.92   -91021.049    249.41475    20724    226095.78      2.01974    329.97139   -75.037628   -248.87454    433.75257    23.513778    22.168075    1.1613128    434.91389   -60.495682   -4094.0277 
   30100   -101218.32    -91020.84     247.6324    20724    225929.36    98.645564    101.74675    125.76429    68.425655    433.59161    23.509485    22.164028    1.2417951     434.8334   -40.545503    -4124.902 
   30200   -101152.25   -90994.098    246.67758    20724    226011.58   -46.023387   -78.200722   -334.55742    274.68798    433.51691    23.515788     22.16997    1.2791461    434.79605   -21.139084   -4162.5269 
   30300   -101131.37   -91001.895    245.98103    20724    226203.99    40.401597    109.34189   -110.38075    122.24365    433.70597    23.520668     22.17457    1.1846161    434.89058   -44.737395   -4132.5625 
   30400   -101192.21   -90975.433    248.10107    20724    226053.12    12.612099     -38.9104    60.461372    16.285326    433.91258    23.507224    22.161896    1.0813106    434.99389   -53.592097   -4154.7939 
   30500   -101123.77   -90955.884    246.91378    20724    226216.28    59.168306    144.34832    -94.59433    127.75093    434.03145    23.512486    22.166857    1.0218746    435.05333   -44.102761   -4181.7289 
   30600   -101184.39   -90965.895    248.14275    20724     226126.3   -94.584463   -112.90878   -144.64051     -26.2041    433.98442    23.509083    22.163649    1.0453892    435.02981   -39.925817   -4172.1219 
   30700   -101117.76   -90932.051    247.34663    20724    226282.59   -4.1043837    6.5831766    56.083768   -74.980096    434.05696     23.51524    22.169454     1.009121    435.06608   -52.189914   -4192.5904 
   30800   -101115.77   -90900.255    248.07039    20724    226027.18   -22.781837    141.14421   -67.316678   -142.17304    433.85821    23.507348    22.162013    1.1084974     434.9667   -56.359503   -4228.9203 
   30900   -101021.28   -90878.997    246.29221    20724    226080.09    4.9261725   -211.24297    242.21144    -16.18995    433.94567     23.50773    22.162373    1.0647629    435.01044   -33.581125   -4275.5698 
   31000   -101053.78   -90949.602    245.36692    20724     226060.2    74.305469    129.09751    184.92181    -91.10291    433.60072    23.516045    22.170212    1.2372416    434.83796   -13.015469   -4231.8815 
   31100   -101084.58   -90942.805    246.27979    20724    226239.27   -82.566157    160.08302   -79.067377   -328.71411    433.76906    23.520791    22.174687    1.1530718    434.92213   -15.090527   -4223.2956 
   31200   -101076.37   -90911.703    246.83568    20724    226137.26    60.087816    2.6100283    134.09392    43.559502    433.79428    23.514804    22.169043    1.1404609    434.93474   -23.938423   -4256.6246 
   31300   -101128.92   -90918.924    247.93655    20724    226105.69    9.3765996    63.548854   -113.33059     77.91153    433.56958    23.519255    22.173239    1.2528115    434.82239   -23.818323   -4250.0187 
   31400   -101006.38   -90882.342    245.84901    20724    225899.75    69.622183   -65.150535    19.751213    254.26587    433.48559    23.510819    22.165286    1.2948055    434.78039   -48.777143   -4272.1002 
   31500   -101099.39   -90910.139    247.43264    20724     226044.4   -72.906347   -109.77571   -326.53426    217.59092    433.71443     23.51214    22.166531    1.1803863    434.89481   -21.815886   -4262.4636 
   31600   -101081.28    -90887.02     247.5544    20724    225969.92   -20.530501    71.093494   -218.90485    86.219851     433.7201    23.508112    22.162734    1.1775489    434.89765   -29.304845   -4282.6222 
   31700   -101131.46   -90886.785    248.77854    20724    225885.74   -105.22287   -63.338445   -9.5081311   -242.82205    433.54724    23.508418    22.163022    1.2639776    434.81122   -29.382982   -4283.7239 
   31800    -101011.8   -90886.247    245.88581    20724    225961.63    17.277519   -122.95647    265.86386   -91.074833    433.63498    23.509988    22.164502    1.2201086    434.85509    -28.62891   -4288.2713 
   31900   -101195.11   -90856.975    251.04815    20724    225973.96   -59.566308   -18.649728   -126.75571   -33.293486    433.59616    23.511682    22.166099    1.2395212    434.83568   -30.938453   -4314.0162 
   32000    -101050.2   -90886.797    246.80492    20724       225967   -14.235485    105.43433   -288.93538     140.7946    433.49225    23.514138    22.168414    1.2914745    434.78373   -44.643426   -4271.4881 
   32100   -101031.76   -90855.204    247.12433    20724    225765.75   -50.341314   -7.2201229    46.597675   -190.40149    433.52644    23.502738    22.157666    1.2743804    434.80082   -39.481234   -4313.6931 
   32200   -101110.61    -90862.55    248.86077    20724     225715.1    42.382174    73.855249   -2.4732242    55.764498    433.61124    23.497803    22.153014     1.231981    434.84322   -46.591992   -4308.0772 
   32300   -101040.98   -90844.899    247.59858    20724    225909.62   -5.0647748    66.466073   -16.271877   -65.388521    433.57926    23.508793    22.163375    1.2479715    434.82723   -17.522185    -4348.573 
   32400   -100964.76   -90830.075    246.10756    20724    225996.13     38.48348   -173.01762    123.04754    165.42052    433.68581    23.510405    22.164895    1.1946965     434.8805   -21.877714   -4357.3303 
   32500   -101118.27   -90829.457    249.85036    20724    225930.84    37.611344    32.771184    300.40783   -220.34498    433.56347    23.510325     22.16482    1.2558644    434.81934   -40.007715   -4344.2641 
   32600   -101064.06   -90847.471    248.09654    20724    225826.66   -30.838526   -39.930959   -139.70998     87.12536    433.31355    23.511681    22.166098    1.3808233    434.69438   -34.533819    -4332.524 
   32700   -101061.84   -90832.237    248.41256    20724    225701.77    21.634963   -213.58282     149.5197    128.96802     433.0949    23.511111    22.165561    1.4901494    434.58505   -40.737237   -4349.2579 
   32800   -101073.09   -90762.495    250.37937    20724    225762.36   -48.783131    127.36588   -22.252007   -251.46327    433.15319    23.512685    22.167044    1.4610052    434.61419   -65.298559   -4390.1597 
   32900    -100959.8       -90831     245.9647    20724    225583.79   -10.532253    26.388243    154.41619   -212.40119    433.07085    23.505618    22.160382    1.5021741    434.57303   -29.136568   -4363.4693 
   33000   -101012.61   -90780.339    248.47742    20724    225639.78   -39.476267   -152.01728   -86.979997    120.56847    433.16566    23.505962    22.160707    1.4547689    434.62043   -43.722736   -4400.8476 
   33100   -100947.21   -90764.333    247.27791    20724    225643.31    19.775317   -56.775926   -105.12142    221.22329    432.93398    23.512435    22.166809    1.5706075    434.50459    -43.73971   -4418.7444 
   33200   -100943.75   -90713.748    248.42222    20724    225702.12    40.674232    189.56249    178.08528   -245.62507    433.21246     23.50794    22.162571    1.4313685    434.64383   -53.851709   -4459.7463 
   33300   -101055.76   -90787.665    249.34723    20724    225752.12      7.15337    13.849129    132.31032   -124.69934    433.08264    23.514067    22.168347    1.4962807    434.57892    -45.54385   -4394.1967 
   33400   -101089.42   -90751.648    251.03922    20724    225571.45    -2.637415   -30.758848    153.21044   -130.36384    433.07126    23.504964    22.159766    1.5019708    434.57323   -64.923808   -4416.1862 
   33500   -100988.62   -90742.689    248.80899    20724    225902.94   -85.351349   -88.536296   -137.11672   -30.401032     433.2003    23.518725    22.172739    1.4374492    434.63775   -62.679247   -4414.6495 
[...]
  491800    -95848.31   -84137.825    284.37388    20724    221341.65    61.885929   -7.1943844    100.71471     92.13746    424.03194     23.53041    22.183756    6.0216284    430.05357    5543.7081   -23755.999 
  491900   -95775.459   -84152.817    282.24073    20724     221227.1   -62.189762    60.149067    129.51264   -376.23099    423.92238     23.52736     22.18088    6.0764089    429.99879    5543.1726   -23739.615 
  492000   -95862.151   -84154.529    284.30435    20724    221326.08    79.567854    217.48107    176.20549   -154.98299    423.99147    23.530706    22.184034    6.0418661    430.03333    5546.3837   -23744.712 
  492100   -95761.321   -84204.207    280.64945    20724    221118.48    19.247253   -34.754816   -61.304118    153.80069    423.60002    23.530532    22.183871    6.2375913    429.83761    5552.3872   -23706.011 
  492200   -95820.901   -84154.902     283.2936    20724    221462.23    -4.078546    124.57252   -210.83723     74.02908    423.61079    23.548516    22.200825    6.2322035      429.843    5542.9351   -23734.992 
  492300   -95816.328   -84183.769    282.48154    20724    221380.07   -14.645425    67.615572    268.73597   -380.28782    423.49906    23.547253    22.199634    6.2880685    429.78713    5560.4361    -23728.97 
  492400   -95697.109   -84144.675    280.53582    20724     221371.4    91.353105     154.2677    88.009504    31.782108    423.68721    23.541563     22.19427    6.1939954     429.8812    5550.1635    -23764.06 
  492500   -95791.744   -84122.546    283.37126    20724     221308.7   -25.059541    1.3577464   -181.69714    105.16077    424.05359    23.528058    22.181538    6.0108064    430.06439     5537.079   -23770.335 
  492600     -95663.7   -84081.244    281.26486    20724    221321.45   -72.396954   -180.40928    -84.32654    47.544958     424.0787    23.528039     22.18152     5.998248    430.07695    5539.9419   -23811.787 
  492700   -95836.266   -84058.639    286.00432    20724    221224.36    48.510732    89.157723   -76.702608    133.07708    424.23401    23.518572    22.172594    5.9205945    430.15461    5519.0689   -23825.043 
  492800   -95785.561   -84088.865    284.03901    20724    221331.65    68.562304    25.560987    251.23895   -71.113022    424.40833    23.519442    22.173415    5.8334325    430.24177    5549.9181   -23825.595 
  492900   -95828.005   -84101.258    284.76876    20724    221309.12     52.67576    141.79616   -136.79956    153.03068    424.24972    23.522641    22.176431    5.9127377    430.16246    5548.8014   -23814.269 
  493000   -95729.801    -84064.09    283.28658    20724    221174.49    1.3708325   -49.245702    202.94539   -149.58719    423.95997     23.52352    22.177259    6.0576126    430.01759    5510.3909   -23818.465 
  493100   -95602.892   -84074.123    279.96115    20724    221235.45    93.278752   -66.336789    395.38518   -49.212135    424.34612    23.516055    22.170221    5.8645421    430.21066    5512.7037   -23811.609 
  493200   -95762.436   -84122.275    282.66614    20724    221405.77     61.64122    178.94629  -0.40300503    6.3803772    424.36192    23.524667    22.178341    5.8566411    430.21856    5519.0853   -23766.302 
  493300   -95780.806   -84112.774    283.34296    20724    221552.48    35.956353   -40.123997    36.708795    111.28426    424.15753    23.538129    22.191032    5.9588325    430.11637    5520.0504   -23772.217 
  493400   -95744.712   -84112.651    282.46946    20724    221537.52    33.016152   -8.3348828   -204.81999    312.20333    424.21838    23.535646    22.188691    5.9284105    430.14679    5525.1619   -23778.544 
  493500   -95702.473   -84142.679    280.71455    20724    221554.89    4.9669253   -93.499968    13.206938    95.193807    424.15897    23.538216    22.191115    5.9581127    430.11709    5521.2526   -23746.402 
  493600   -95674.238   -84127.555    280.39615    20724    221483.76    57.355261    260.40824    9.3153052   -97.657766    424.37148    23.528544    22.181996    5.8518589    430.22334    5531.7393   -23777.474 
  493700   -95823.116   -84097.092    284.75123    20724    221237.03   -64.233655   -195.15008   -178.70834    181.15746    423.94446    23.527276      22.1808    6.0653723    430.00983     5538.663   -23820.074 
  493800   -95647.714   -84102.996    280.34844    20724    221396.93     69.31369    99.492253    97.646794    10.802021    423.85392     23.53829    22.191184    6.1106389    429.96456    5549.2068   -23825.976 
  493900   -95685.412   -84078.175    281.86663    20724     221232.8    44.967595    217.82076   -133.37635    50.458375    423.97344    23.526247     22.17983      6.05088    430.02432      5536.96   -23844.623 
  494000   -95768.548   -84084.085    283.74198    20724    221164.14    104.66419    71.499266   -17.689785    260.18309    424.08283    23.519562    22.173528     5.996184    430.07902    5543.3455   -23853.182 
  494100   -95674.419   -84089.387    281.32739    20724    221199.84   -88.818208   -264.47148   -421.93622    419.95308    423.46303    23.538667     22.19154    6.3060858    429.76911    5533.6244   -23830.022 
  494200   -95809.692   -84120.846     283.8484    20724    221236.96   -47.964511   -171.47287    46.606012   -19.026673     423.5693    23.537689    22.190617    6.2529509    429.82225    5546.0801    -23813.57 
  494300   -95786.651   -84135.171      282.941    20724    221380.77   -140.80236   -32.053219    71.449066   -461.80293    423.64995    23.543097    22.195716    6.2126269    429.86257    5565.5705   -23811.273 
  494400   -95840.891   -84121.517    284.58973    20724    221110.21    14.460107    106.41555    70.557134   -133.59236    423.38233     23.53614    22.189158    6.3464362    429.72876    5550.7581    -23828.09 
  494500   -95743.064    -84103.98       282.64    20724    221569.06   -30.065369   -15.203637    137.63021   -212.62268    423.45433    23.558546    22.210281    6.3104342    429.76477     5560.919   -23838.246 
  494600   -95669.201   -84097.841    280.99541    20724    221302.38    103.39152    281.77232    112.90484   -84.502609    423.55957    23.541439    22.194153    6.2578154    429.81738     5552.928   -23854.581 
  494700   -95717.192   -84104.487    281.99943    20724    221285.97   -8.8817912   -115.33118   -59.657627    148.34344    423.70449     23.53654    22.189534    6.1853527    429.88985    5561.8796   -23852.632 
  494800   -95719.674   -84067.752    282.95173    20724    221183.88    8.8353893    59.802424   -6.7636785   -26.532578    423.12746     23.54715    22.199537    6.4738702    429.60133    5542.9693   -23876.831 
  494900   -95826.565   -84102.816    284.69596    20724    221085.52    72.071013    117.01351   -26.649203    125.84873    423.65892    23.527143    22.180675    6.2081424    429.86706    5559.5399   -23868.764 
  495000   -95683.475   -84013.412    283.39228    20724    221155.21   -6.9051556    141.10676    218.15683   -379.97906    423.81532    23.526508    22.180077    6.1299397    429.94526    5531.8163   -23925.014 
  495100   -95704.848   -84072.094    282.48627    20724    221353.38   -9.3744709    105.92658   -45.663156   -88.386839    423.69684    23.540337    22.193114    6.1891792    429.88602    5550.3178   -23878.341 
  495200   -95638.392   -83955.097    283.71359    20724    221536.15   -13.723461   -6.2041631    24.893583   -59.859804     423.7364    23.548954    22.201238    6.1693979     429.9058    5540.2373   -23981.718 
  495300   -95603.181   -83989.807    282.01567    20724    221348.59    3.7798448   -191.60597    186.62201    16.323494    423.71537    23.539568    22.192389    6.1799131    429.89529    5531.5243   -23944.502 
  495400   -95782.189   -83994.474    286.24932    20724    221545.62    26.380204   -23.864955   -124.95717    227.96274    423.94451    23.543677    22.196263    6.0653464    430.00985     5521.331   -23927.443 
  495500   -95697.118   -83991.382    284.25855    20724    221327.04   -167.59372   -224.42375   -460.80499    182.44758    423.38167    23.547696    22.200052    6.3467661    429.72843    5502.1749   -23913.344 
  495600   -95665.537   -84040.065    282.30943    20724    221025.58    73.967027     235.3289   -10.807813   -2.6200052      423.282    23.534425     22.18754    6.3966022     429.6786    5520.8818   -23905.632 
  495700   -95640.747   -84018.563     282.2296    20724    221167.91    18.638464    171.76398   -126.83339    10.984805     423.5861    23.533549    22.186714    6.2445506    429.83065     5495.027   -23893.084 
  495800   -95720.086   -84041.378     283.6022    20724    221482.67    120.09977    29.182831    124.70527    206.41121    423.80788    23.544126    22.196686    6.1336595    429.94154    5534.2762   -23906.209 
  495900   -95726.143   -84059.341     283.3131    20724    221266.03   -51.244891   -24.188535    104.44894   -233.99508    423.67911    23.536184    22.189199    6.1980461    429.87715    5529.2707    -23887.48 
  496000   -95805.957   -84062.538    285.17362    20724    221303.27   -43.706798   -12.451042   -30.090047   -88.579305    424.20466     23.52358    22.177316    5.9352708    430.13993    5521.0654   -23877.027 
  496100   -95662.015   -84014.902    282.83497    20724    221360.35    22.792238   -30.515046    74.575752    24.316006    424.12646    23.528782     22.18222     5.974369    430.10083    5507.3479   -23912.281 
  496200   -95658.153   -84017.932     282.6676    20724    221523.54    17.391967    12.855169     157.1434   -117.82267    424.28414    23.533079    22.186272    5.8955286    430.17967     5533.623   -23931.159 
  496300   -95634.443   -84028.381    281.83809    20724    221382.96   0.56089224   -68.816842    300.08566   -229.58614    424.20059    23.527928    22.181415    5.9373051    430.13789       5509.7   -23903.042 
  496400   -95617.037   -83999.276    282.12217    20724    221656.72    110.59753    111.13908    32.947474    187.70605     424.2581    23.540874    22.193621    5.9085479    430.16665    5498.7528   -23918.211 
  496500   -95715.855   -84037.557    283.59225    20724    221196.41    3.8699591    109.64699   -256.96434    158.92722    423.69384    23.532072    22.185322    6.1906781    429.88452    5515.2047   -23910.004 
  496600    -95675.51    -84015.06    283.15883    20724    221279.59    14.283207    16.325874     147.0205   -120.49675    424.27265    23.520436    22.174352    5.9012743    430.17393    5513.0149     -23928.9 
  496700   -95639.342   -84050.547    281.41879    20724    221245.41    92.767721   -157.44681    262.00288     173.7471    424.31228    23.517522    22.171604    5.8814586    430.19374    5533.3687   -23920.904 
  496800   -95608.573   -84005.482    281.76594    20724    221211.81   -26.050385  0.085420269    18.031514   -96.268088    424.48269    23.511015     22.16547    5.7962538    430.27895    5504.6419   -23934.296 
  496900   -95718.824   -83974.982    285.18391    20724    221384.19   -74.836826    139.27313   -188.12331    -175.6603    424.90908    23.508369    22.162976    5.5830609    430.49214    5509.0601   -23962.866 
  497000   -95650.387   -83989.804    283.16206    20724    221239.42     193.0682    242.97761    201.86618     134.3608    424.77113    23.504498    22.159326    5.6520335    430.42317    5530.9102   -23988.908 
  497100   -95544.567   -84018.738    279.88974    20724    221171.57     54.91228    82.127002     15.89013     66.71971    424.70415    23.502746    22.157675    5.6855259    430.38967     5542.102   -23966.594 
  497200   -95659.762   -84021.108    282.62954    20724    221158.57   -85.828749   -160.62889   -341.65042    244.79306    424.64012    23.503828    22.158694    5.7175405    430.35766    5540.3696   -23957.421 
  497300   -95652.686   -84029.495    282.25403    20724    221078.76    69.935118    90.405975    65.606182    53.793197    424.59545    23.500822    22.155861    5.7398726    430.33533    5550.6173   -23969.861 
  497400   -95712.535   -83994.701    284.55232    20724    221277.68   -50.052878    34.347858   -8.8087868    -175.6977    424.35105    23.518162    22.172208    5.8620754    430.21312    5518.1104   -23963.332 
  497500   -95711.601   -84031.672    283.63187    20724    221497.63   -33.672667   -2.9496213   -4.5670763   -93.501303    424.34434    23.530034      22.1834    5.8654305    430.20977    5534.5944   -23936.793 
  497600   -95690.051   -84009.778    283.64021    20724     221460.9  -0.81280291    75.272056    10.058484   -87.768948    424.39296    23.526735    22.180291    5.8411201    430.23408     5533.073   -23961.148 
  497700   -95702.146   -84045.107    283.07602    20724    221361.92   -39.516357    112.87482   -169.28214    -62.14175    424.26186    23.525111    22.178759    5.9066688    430.16853    5546.9337   -23942.414 
  497800   -95747.785   -84007.151    285.10599    20724    221411.83   -17.294233    14.635881   -108.54121    42.022631    424.47785    23.521776    22.175616    5.7986759    430.27652     5553.805   -23988.536 
  497900   -95680.009   -84005.669    283.49614    20724    221523.78    89.680289    193.31953   -1.2741968    76.995531    424.85106    23.517385    22.171476    5.6120712    430.46313    5573.2288   -24014.724 
  498000   -95726.451   -84030.891    284.01145    20724    221523.29    64.818341   -48.746625    8.1492989    235.05235     424.9638     23.51424    22.168511       5.5557     430.5195    5572.5807   -23989.297 
  498100   -95615.035    -83996.83    282.13298    20724    221723.17   -35.758077    -120.4764    78.984661   -65.782493    425.07208    23.521849    22.175684    5.5015582    430.57364    5584.0889   -24024.114 
  498200   -95667.925   -84011.495    283.06122    20724    221800.03   -50.850403   -117.62178   -79.026134    44.096701    425.24052    23.521266    22.175135    5.4173418    430.65786    5582.8007   -24006.425 
  498300   -95846.728   -84066.895     286.0579    20724    221653.56   -128.47627    178.47732   -323.17036   -240.73576    424.95259    23.521463     22.17532    5.5613038     430.5139    5609.9126   -23984.567 
  498400   -95742.495    -84071.99    283.40302    20724       221372   -55.265154     31.74101    -201.2183    3.6818332    424.95238    23.506525    22.161237    5.5614118    430.51379    5606.6794   -23990.576 
  498500   -95685.436   -84070.941    282.04287    20724    221652.64    12.959098    94.522494   -116.21891     60.57371    425.36749     23.50994    22.164457    5.3538568    430.72134    5616.6182   -23996.607 
  498600     -95660.7   -84098.734     280.7673    20724    221346.75    114.01436      104.177     164.9201     72.94598    425.18606    23.498724    22.153883    5.4445717    430.63063    5628.5309   -23998.692 
  498700    -95738.33   -84120.938    282.11323    20724    221324.17   -131.38755   -74.382193   -159.90516    -159.8753    424.73353     23.51004    22.164551    5.6708355    430.40436    5631.4327   -23969.988 
  498800   -95651.767   -84113.278    280.19716    20724    221466.43     89.96915     223.0461   -16.523968    63.385316    424.74725    23.517214    22.171315    5.6639768    430.41122    5622.8429   -23975.278 
  498900   -95811.344   -84158.441    282.97557    20724    221467.15   -2.4409127    115.45645   -53.487223    -69.29197    424.86103    23.514104    22.168382    5.6070836    430.46812    5636.5232   -23941.621 
  499000   -95807.931   -84131.442    283.54831    20724    221725.79   -106.96276   -11.025592    33.942914   -343.80561    425.03016    23.523148    22.176909    5.5225218    430.55268    5640.5863   -23961.256 
  499100     -95778.1   -84108.217    283.38789    20724     221428.8   -11.709063    138.44422    179.31771   -352.88912    425.20625    23.502521    22.157462    5.4344729    430.64073    5624.7042   -23983.471 
  499200   -95691.915   -84119.871    281.01202    20724    221477.08    172.20493    343.19511     155.9151    17.504582    425.26324    23.503508    22.158393    5.4059787    430.66922    5635.9552   -23991.412 
  499300    -95708.36   -84090.317    282.12904    20724    221624.51    -58.99416   -286.61299   -98.620733    208.25124    425.10905    23.515593    22.169786    5.4830757    430.59212    5645.4989   -24017.592 
  499400   -95660.998   -84123.931    280.16264    20724    221478.29    34.714988     41.86147   -171.30868    233.59217    425.08369    23.508536    22.163133    5.4957539    430.57945    5646.4698   -23995.959 
  499500    -95703.51   -84122.917    281.21961    20724    221628.65   -12.604859    -111.9033   -2.0973563    76.186082    425.04242    23.517656    22.171731    5.5163902    430.55881     5629.006   -23973.112 
  499600   -95730.503   -84111.938    282.14171    20724    221539.52    4.3239149   -165.83625    54.202931    124.60506     424.6788     23.52299     22.17676    5.6981978      430.377    5644.1648    -24004.16 
  499700   -95760.258   -84122.513    282.60748    20724    221394.66   -43.677382    -19.36438   -72.573029   -39.094736    424.35064    23.524389    22.178079    5.8622813    430.21292    5648.8813   -24003.267 
  499800   -95623.325   -84175.025    278.00707    20724    221252.05    167.86132    59.294979    27.486357    416.80262    423.99351    23.526713     22.18027    6.0408459    430.03435    5656.5618   -23973.709 
  499900   -95695.411   -84140.129    280.60498    20724    221286.32   -4.3387473     156.3066   -326.68179    157.35896    424.04362    23.527145    22.180677    6.0157877    430.05941    5645.3299   -23991.617 
  500000   -95757.703   -84129.311    282.38035    20724    221122.36   -49.124502   -153.40484   -168.58053    174.61187    424.25765    23.512494    22.166865    5.9087725    430.16643    5642.3843   -24004.081 
Loop time of 52311.8 on 32 procs for 500000 steps with 20724 atoms

Performance: 1.652 ns/day, 14.531 hours/ns, 9.558 timesteps/s
97.2% CPU use with 32 MPI tasks x no OpenMP threads

MPI task timing breakdown:
Section |  min time  |  avg time  |  max time  |%varavg| %total
---------------------------------------------------------------
Pair    | 6457.2     | 9178.1     | 13048      |2541.0 | 17.54
Bond    | 0.37549    | 0.48167    | 0.56658    |   7.1 |  0.00
Kspace  | 8015.3     | 11900      | 14635      |2243.9 | 22.75
Neigh   | 8574.6     | 10847      | 12830      |1529.2 | 20.74
Comm    | 442.95     | 3886.9     | 8038.2     |4319.1 |  7.43
Output  | 5.4571     | 48.452     | 76.672     | 366.7 |  0.09
Modify  | 12898      | 16412      | 21799      |2487.3 | 31.37
Other   |            | 38.19      |            |       |  0.07

Nlocal:    647.625 ave 689 max 599 min
Histogram: 2 2 2 5 6 4 0 4 2 5
Nghost:    7496.09 ave 7770 max 7271 min
Histogram: 4 4 2 4 5 3 2 5 1 2
Neighs:    238221 ave 265132 max 210489 min
Histogram: 1 2 4 10 3 1 0 3 3 5
FullNghs:  476443 ave 532711 max 424956 min
Histogram: 2 3 6 9 0 1 0 4 2 5

Total # of neighbors = 15246179
Ave neighs/atom = 735.677
Ave special neighs/atom = 2
Neighbor list builds = 500000
Dangerous builds not checked
write_data production.R1
PPPM initialization ...
  extracting TIP4P info from pair style
WARNING: Using 12-bit tables for long-range coulomb (../kspace.cpp:316)
  G vector (1/distance) = 0.345886
  grid = 400 48 48
  stencil order = 5
  estimated absolute RMS force accuracy = 0.000402463
  estimated relative force accuracy = 1.212e-06
  using double precision FFTs
  3d grid and FFT values/proc = 67260 38400
write_restart restartproduction.R1
PPPM initialization ...
  extracting TIP4P info from pair style
WARNING: Using 12-bit tables for long-range coulomb (../kspace.cpp:316)
  G vector (1/distance) = 0.345886
  grid = 400 48 48
  stencil order = 5
  estimated absolute RMS force accuracy = 0.000402463
  estimated relative force accuracy = 1.212e-06
  using double precision FFTs
  3d grid and FFT values/proc = 67260 38400
Total wall time: 14:31:52
