LAMMPS (30 Jul 2016)
# Sets up LAMMPS simulation for transient melting of ice: TIP4P/Ice
# Ensure cold thermostats do not move
# Thinbox: 16x1x1
# Defects
# Order param l=2

#### setting MD parameters ####
units real
boundary p p p
atom_style full

# read ice box in restart file
#read_data ice-ih-restart.data
read_restart restart.state
  orthogonal box = (0.358622 0.0193517 0.0182442) to (435.717 23.5118 22.1663)
  32 by 1 by 1 MPI processor grid
  20736 atoms
  13824 bonds
  6912 angles
  2 = max # of 1-2 neighbors
  1 = max # of 1-3 neighbors
  1 = max # of 1-4 neighbors
  2 = max # of special neighbors

#replicate 16 boxes, 16x1x1


#### force field definition ####
pair_style      lj/cut/tip4p/long 2 1 1 1 0.1577 10.0
pair_modify	tail yes

kspace_style	pppm/tip4p 1.0e-6

bond_style	harmonic
angle_style	harmonic
dihedral_style	none
improper_style	none

bond_coeff	1 450.0 0.9572
angle_coeff	1 55.0 104.52


# reset pair coeff
pair_coeff	* * 0.0 0.0

#OO
pair_coeff	2 2 0.21085 3.1668
#OH
pair_coeff	* 1 0.0000 0.0000

neighbor        2.0 bin
neigh_modify    every 1 delay 1 check no

timestep	2.0
fix		constraints all shake 0.000001 20 0 b 1 a 1
  0 = # of size 2 clusters
  0 = # of size 3 clusters
  0 = # of size 4 clusters
  6912 = # of frozen angles

group water type 1 2
20736 atoms in group water

#*********** SIMULATION PARAMETER TO ADJUST ****************
#Box dimensions
variable lx equal lx
variable ly equal ly
variable lz equal lz

### Temperature of the hot and cold regions ####
variable thi equal 375
variable tlo equal 215
variable runpressure equal 0.986923
# Configuration equilibrated in density and temperature

# Define dx here

variable lx equal lx
variable ly equal ly
variable lz equal lz

variable xlo equal xlo
variable xhi equal xhi


variable dx equal 2.0

### ADD IN DEFECTS AT THE CENTRE OF THE HOT THERMOSTAT ###
variable x1 equal ${lx}/4.0
variable x1 equal 435.357956764226/4.0
variable y1 equal ${ly}/2.0
variable y1 equal 23.4924965973997/2.0
variable z1 equal ${lz}/2.0
variable z1 equal 22.1480116086306/2.0

region kill1 sphere ${x1} ${y1} ${z1} 3
region kill1 sphere 108.839489191057 ${y1} ${z1} 3
region kill1 sphere 108.839489191057 11.7462482986999 ${z1} 3
region kill1 sphere 108.839489191057 11.7462482986999 11.0740058043153 3
delete_atoms region kill1 compress no bond yes mol yes
Deleted 12 atoms, new total = 20724
Deleted 8 bonds, new total = 13816
Deleted 4 angles, new total = 6908




variable thip equal ${thi}*2.0/3.0
variable thip equal 375*2.0/3.0
variable tlop equal ${tlo}*2.0/3.0
variable tlop equal 215*2.0/3.0
variable cbl equal ${lx}*3.0/4.0-${dx}
variable cbl equal 435.357956764226*3.0/4.0-${dx}
variable cbl equal 435.357956764226*3.0/4.0-2
variable cbh equal ${lx}*3.0/4.0+${dx}
variable cbh equal 435.357956764226*3.0/4.0+${dx}
variable cbh equal 435.357956764226*3.0/4.0+2
variable hbl equal ${lx}*1.0/4.0-${dx}
variable hbl equal 435.357956764226*1.0/4.0-${dx}
variable hbl equal 435.357956764226*1.0/4.0-2
variable hbh equal ${lx}*1.0/4.0+${dx}
variable hbh equal 435.357956764226*1.0/4.0+${dx}
variable hbh equal 435.357956764226*1.0/4.0+2


#***************************************************
## EQUILIBRATION PERIOD - to reach the steady state ###
#run 0

#reset the timestep to start your production run
reset_timestep 0

# define a group to perform averages
#group s1 type 1
###*** SYSTEM THERMOSTATTING: HOT and COLD regions ***###

fix NVE all nve
fix PRESS all press/berendsen aniso ${runpressure} ${runpressure} 500000 couple yz
fix PRESS all press/berendsen aniso 0.986923 ${runpressure} 500000 couple yz
fix PRESS all press/berendsen aniso 0.986923 0.986923 500000 couple yz


### Apply THERMOSTATS ###

#set up the "hot region" in the middle of the box
region hot block ${hbl} ${hbh} 0 ${ly} 0 ${lz} units box
region hot block 106.839489191057 ${hbh} 0 ${ly} 0 ${lz} units box
region hot block 106.839489191057 110.839489191057 0 ${ly} 0 ${lz} units box
region hot block 106.839489191057 110.839489191057 0 23.4924965973997 0 ${lz} units box
region hot block 106.839489191057 110.839489191057 0 23.4924965973997 0 22.1480116086306 units box


#set up the "cold region" at the left end of the box
region cold block ${cbl} ${cbh} 0 ${ly} 0 ${lz} units box
region cold block 324.51846757317 ${cbh} 0 ${ly} 0 ${lz} units box
region cold block 324.51846757317 328.51846757317 0 ${ly} 0 ${lz} units box
region cold block 324.51846757317 328.51846757317 0 23.4924965973997 0 ${lz} units box
region cold block 324.51846757317 328.51846757317 0 23.4924965973997 0 22.1480116086306 units box

#set up the "cold region" at the right end of the box
#region cold2 block ${h2bl} ${xhi} 0 ${ly} 0 ${lz} units box


#Cold regions  unification
#region cold union 2 cold1 cold2 units box

#Create group of cold molecules
####group cool_ice region cold
####group cool_ice include molecule

####compute cold_temp cool_ice temp
####fix cold_rescale water temp/rescale 1 ${tlo} ${tlo} 0.0001 1.0
####fix_modify cold_rescale temp cold_temp

#this calculates the temperature using only the atoms in the "hot region"
#compute hot_temp all temp/region hot

# calculate the temperature using only WATER in the "hot region"
compute hot_temp water temp/region hot

#this calculates the temperature using only WATER in the "cold region"
compute cold_temp water temp/region cold


#set up a basic velocity rescale for the hot region WATER with thip
fix hot_rescale water temp/rescale 1 ${thip} ${thip} 1.0 1.0
fix hot_rescale water temp/rescale 1 250 ${thip} 1.0 1.0
fix hot_rescale water temp/rescale 1 250 250 1.0 1.0
#change the thermostat to only act on the "hot region"
#this is done by passing it the "hot temp" compute that we defined above
fix_modify hot_rescale temp hot_temp

#set up a basic velocity rescale for the cold region
fix cold_rescale water temp/rescale 1 ${tlop} ${tlop} 1.0 1.0
fix cold_rescale water temp/rescale 1 143.333333333333 ${tlop} 1.0 1.0
fix cold_rescale water temp/rescale 1 143.333333333333 143.333333333333 1.0 1.0
#change the thermostat to only act on the "cold region"
#this is done by passing it the "cold temp" compute that we defined above
fix_modify cold_rescale temp cold_temp

### Ensure MOMENTUM CONSERVATION ###

#ensure that linear momentum is conserved despite the "thermostatting" by velocity rescaling
fix cons_mom all momentum 1 linear 1 1 1


thermo 100
thermo_style custom step pe etotal temp atoms vol press pxx pyy pzz lx ly lz xlo xhi f_cold_rescale f_hot_rescale

group ox type 2
6908 atoms in group ox
group hy type 1
13816 atoms in group hy
compute KE all ke/atom
variable TEMP atom c_KE*4186.8/(1.3806488*6.02214129)

compute cc1 all chunk/atom bin/1d x center 2 units box
#fix TPROFILE all ave/chunk 1 500 500 cc1 v_TEMP density/number file temp.dat
fix TPROFILEox ox ave/chunk 1 500 500 cc1 v_TEMP density/number file temp-ox.dat
fix TPROFILEhy hy ave/chunk 1 500 500 cc1 v_TEMP density/number file temp-hy.dat

compute orderparam ox orientorder/atom degrees 1 2 nnn 4 cutoff 3.5
compute cc2 ox chunk/atom bin/1d x center 2 units box
#fix ORDERPARAM all ave/chunk 1 500 500 cc2 c_orderparam[1] file order-param.dat
fix ORDERPARAM all ave/chunk 1 500 500 cc2 c_orderparam[1] file order-param.dat

restart 50000 config.restart

run 500000
PPPM initialization ...
  extracting TIP4P info from pair style
WARNING: Using 12-bit tables for long-range coulomb (../kspace.cpp:316)
  G vector (1/distance) = 0.34558
  grid = 405 48 48
  stencil order = 5
  estimated absolute RMS force accuracy = 0.000406359
  estimated relative force accuracy = 1.22374e-06
  using double precision FFTs
  3d grid and FFT values/proc = 67260 38880
Neighbor list info ...
  2 neighbor list requests
  update every 1 steps, delay 1 steps, check no
  max neighbors/atom: 2000, page size: 100000
  master list distance cutoff = 12.3154
  ghost atom cutoff = 12.3154
  binsize = 6.1577 -> bins = 71 4 4
Memory usage per processor = 12.7815 Mbytes
Step PotEng TotEng Temp Atoms Volume Press Pxx Pyy Pzz Lx Ly Lz Xlo Xhi cold_res hot_resc 
       0   -103679.79   -94782.706    216.05401    20724    226522.01   -82.996639   -167.49457   -72.200324   -9.2950233    435.35796    23.492497    22.148012   0.35862162    435.71658            0            0 
     100   -103630.18   -94513.879    221.37738    20724    226652.42   -54.428571    44.180553   -187.43322   -20.033049    435.39994    23.498125    22.153318   0.33763007    435.73757    15.888124   -279.72747 
     200   -103582.51   -94462.606      221.465    20724    226672.22   -19.187394   -121.01082    166.69376   -103.24512     435.4437    23.497971    22.153172   0.31574929    435.75945   0.36686362   -318.11017 
     300   -103576.42   -94441.903    221.81982    20724    226558.34   -34.830312    -55.83963   -66.668732    18.017425    435.26496     23.49689    22.152154   0.40511779    435.67008    1.6481941   -341.85535 
     400   -103454.46   -94357.296    220.91286    20724    226549.17     55.16485    28.572009     348.9173   -211.99476     435.2117    23.497853    22.153061   0.43175107    435.64345   -11.642268   -419.28098 
     500   -103445.74   -94342.077    221.07068    20724    226633.27   -21.402007    9.5616283   -158.39076    84.623108    435.22557    23.501839     22.15682   0.42481715    435.65038    8.9069651   -449.81422 
     600   -103455.63   -94338.879    221.38833    20724    226569.29   -6.8233334    19.414938   -411.13406    371.24912    435.26713    23.497399    22.152634   0.40403382    435.67117    8.8445623    -456.5705 
     700   -103352.74   -94300.526    219.82112    20724     226734.3    92.978361    78.591394   -21.514404    221.85809    435.42257    23.501759    22.156744   0.32631492    435.74889    2.8833174   -488.55823 
     800   -103399.13    -94242.92     222.3467    20724    226666.91   -113.08557    33.826071   -193.83335   -179.24943     435.3099    23.501306    22.156317    0.3826482    435.69255   -10.514488   -526.79606 
     900   -103441.18   -94248.157    223.24046    20724     226694.8   -3.0710985    34.518286   -245.76416    202.03258    435.23593    23.504749    22.159563   0.41963379    435.65557   -1.7388103   -535.83583 
    1000   -103312.72   -94179.825    221.78057    20724    226628.64    3.6108462    24.851553   -215.34219    201.32318    435.25534    23.500795    22.155835   0.40993083    435.66527   -27.833808   -579.96987 
    1100   -103379.01   -94164.473    223.76293    20724    226547.98   -57.295063   -22.500142   -126.45943   -22.925618    435.37189    23.493468    22.148927   0.35165675    435.72354   -21.426578   -603.21155 
    1200   -103387.52   -94148.745    224.35153    20724    226665.01    68.033944    162.81547    170.36318   -129.07682    435.48599    23.496456    22.151745    0.2946033     435.7806   -36.068566   -608.56144 
    1300   -103422.85   -94093.493    226.55126    20724    226574.75    -37.91873   -34.709686   -191.35103    112.30453    435.36558    23.495026    22.150396   0.35480886    435.72039   -21.126885   -677.71335 
    1400   -103334.42   -94089.175    224.50864    20724    226608.37   -17.294279   -143.29857   -35.364124    126.77985    435.09071     23.50419    22.159035   0.49224549    435.58295   -38.887639    -663.6772 
    1500   -103345.55   -93996.151    227.03802    20724    226819.28   -100.29188   -121.24953    56.367609   -235.99371    435.45042    23.505411    22.160187   0.31239233    435.76281   -59.536669   -728.41291 
    1600   -103240.22    -93963.13      225.282    20724    226609.29    26.123523   -62.726872    78.108744    62.988698     435.4934    23.493368    22.148833   0.29090013     435.7843   -40.912951   -791.87438 
    1700      -103197   -93885.519    226.11721    20724    226663.22   -28.716409   -80.324493    54.872983   -60.697718    435.53442    23.495057    22.150426   0.27039069    435.80481   -78.937383   -826.83723 
    1800   -103106.37   -93858.092    224.58226    20724    226686.38    39.242563   -1.3180969   -199.40867    318.45446    435.35912    23.500987    22.156016   0.35804241    435.71716   -74.701425   -862.21187 
    1900   -103160.72   -93844.714    226.22712    20724    226816.97    17.931069    93.886586   -298.54844    258.45506    435.54248    23.502807    22.157732   0.26636205    435.80884   -48.494237   -896.90032 
    2000   -103210.95   -93836.206    227.65355    20724    226826.26   -33.736477   -84.564013   -397.26292     380.6175    435.63836    23.500702    22.155747   0.21842238    435.85678   -52.697459    -899.5098 
    2100   -103084.84   -93810.958    225.20418    20724    226758.76   -44.592767    134.51694    39.996552   -308.29179    435.46994    23.501748    22.156733    0.3026294    435.77257   -55.895418   -922.40219 
    2200   -103190.29   -93809.907     227.7905    20724       226734   -41.321759   -14.074792    129.96099   -239.85147    435.42627    23.501643    22.156635   0.32446726    435.75073   -68.566687   -913.50798 
    2300    -103126.7   -93849.553     225.2834    20724    226765.19    3.7229077    117.46308   -30.148519    -76.14584    435.39326    23.504151    22.158999   0.34096984    435.73423   -52.206631   -893.07773 
    2400   -103154.08   -93810.629    226.89355    20724    226871.34    57.791023    39.410265    272.71392   -138.75111    435.43491    23.508527    22.163124   0.32014667    435.75505   -26.465946    -956.7289 
    2500    -103141.8   -93857.065    225.46772    20724    226711.39     78.86329    193.37514    24.035307    19.179421    435.40365    23.501082    22.156106    0.3357745    435.73943   -8.3821034   -934.40502 
    2600    -103092.9    -93818.23     225.2233    20724    226842.34   -73.767648    81.431414   -252.24645   -50.487908    435.61122    23.502267    22.157223   0.23199145    435.84321    -11.58601   -962.79272 
    2700   -103182.22    -93808.15    227.63712    20724    226783.55    10.523014    51.809253    25.500137   -45.740349    435.58015    23.500059    22.155141   0.24752501    435.82767   -6.9522199   -983.34207 
    2800   -103119.62   -93804.901    226.19591    20724    226751.23    45.470442    89.556455    138.90892   -92.054046    435.41207    23.502919    22.157838   0.33156533    435.74363   -1.7577478   -995.40728 
    2900   -103133.83   -93766.662    227.46947    20724    226820.99    27.221874    128.46224    147.65401   -194.45063    435.59867    23.501499    22.156499   0.23826288    435.83694    9.9012711   -1043.8394 
    3000    -103077.6   -93765.179    226.14006    20724    226784.69    10.907532    14.012752   -15.696941    34.406785    435.43624    23.504001    22.158857   0.31947863    435.75572    14.137471   -1049.6804 
    3100   -103159.76   -93763.546    228.17492    20724    226754.25   -52.191948    -130.4401   -63.777841    37.642098    435.42009     23.50286    22.157781   0.32755521    435.74764    17.170761   -1053.1706 
    3200   -103103.85   -93737.168    227.45759    20724    226727.17   -23.601259    30.554182    133.01984    -234.3778    435.22183    23.506808    22.161504    0.4266826    435.64852    11.538787   -1076.7184 
    3300   -102967.64   -93713.524     224.7242    20724     226637.5    32.677905    88.158945    395.85016   -385.97539    435.38832    23.497665    22.152885   0.34344147    435.73176     19.98456    -1113.676 
    3400   -103150.01   -93686.376    229.81204    20724    226693.27   -18.921911   -11.691814    65.396507   -110.47043    435.28739    23.503281    22.158178   0.39390546    435.68129    8.6540363   -1127.7412 
    3500   -103023.62   -93674.449    227.03253    20724       226604    47.923548   -81.024988   -41.561918    266.35755    435.15584    23.502204    22.157164   0.45968065    435.61552   -2.2757101   -1134.5043 
    3600   -103051.95   -93681.567    227.54743    20724    226542.83     6.474665   -20.184147   -378.74744    418.35559    434.97334    23.503961     22.15882   0.55093034    435.52427   -18.234389   -1113.6302 
    3700   -103073.83   -93620.439    229.56317    20724    226673.28   -3.7350235   -162.81448    70.581647    81.027766    435.35842    23.500327    22.155394   0.35838906    435.71681   -7.9087418   -1180.3763 
    3800   -102948.87   -93611.211    226.75291    20724    226688.28     6.820503   -21.174575    115.22369   -73.587609    435.41494    23.499579    22.154689   0.33013005    435.74507   -6.3523673   -1193.1524 
    3900   -103078.67     -93603.4    230.09452    20724    226674.44   -35.309085   -140.59557    177.70776   -143.03945    435.31156    23.501652    22.156643   0.38181821    435.69338    1.1544956   -1208.0574 
    4000    -102952.6   -93552.839    228.26093    20724    226780.96    -20.33516    241.37205   -97.502177   -204.87535    435.24313    23.509021     22.16359   0.41603413    435.65917   -9.7664692   -1246.2684 
    4100   -103073.55   -93587.631     230.3532    20724    226766.04    1.5986928    80.126993    7.9892307   -83.320145     435.3147    23.506315     22.16104   0.38024828    435.69495    26.031359   -1253.3103 
    4200   -102958.47   -93592.526    227.43986    20724    226661.28    30.528338   -4.3762295    136.28969   -40.328451    435.20555    23.503832    22.158698   0.43482697    435.64037    3.3619387   -1226.5115 
    4300   -103193.76   -93550.491    234.17416    20724    226733.63   -38.887581   -144.21281   -44.784137    72.334203    435.35471    23.503555    22.158437    0.3602474    435.71495    11.492058   -1275.0117 
    4400   -102970.88   -93538.371     229.0562    20724    226498.97   -11.904614   -62.853596   -186.82584    213.96559    435.22972    23.494762    22.150148    0.4227379    435.65246    7.5992393   -1290.2106 
    4500   -103071.47   -93513.685    232.09842    20724    226583.52    -24.09352   -218.69208    129.88926    16.522268    435.18019    23.500485    22.155542   0.44750392     435.6277    7.3575816   -1315.8851 
    4600   -102965.78   -93488.884    230.13401    20724    226661.54   -34.477505    101.85621    -63.48809   -141.80063    435.24739    23.502715    22.157646   0.41390404     435.6613    16.126748   -1345.0983 
    4700   -103001.32   -93470.658    231.43962    20724    226846.52    -15.67451   -203.16019    80.593908    75.542754    435.28155    23.511381    22.165815   0.39682256    435.67838    17.550911   -1362.2564 
    4800   -102987.02   -93495.636    230.48591    20724    226634.86    41.865303    140.27397   -20.660423    5.9823621    435.25572    23.501108     22.15613   0.40974067    435.66546    26.581458   -1356.6894 
    4900   -102935.49    -93518.88    228.67018    20724    226763.44    20.026751    -75.77148    206.60791   -70.756183    435.51405      23.5008     22.15584   0.28057304    435.79463    54.923376   -1357.1265 
    5000   -102893.32   -93488.196    228.39113    20724    226694.26    69.535688    103.07507    51.923776    53.608218    435.22506    23.505015    22.159813   0.42506803    435.65013    30.125008   -1367.7304 
    5100   -102947.63   -93456.177    230.48765    20724    226703.63   -8.2278529   -107.87048    -163.4084    246.59531    435.24345    23.505004    22.159803   0.41587718    435.65932    31.338349   -1396.4057 
    5200   -102871.08   -93443.721    228.93105    20724    226746.91    26.746357    22.675518   -146.54116    204.10471    435.27103    23.506503    22.161216   0.40208569    435.67311     13.40962   -1392.9067 
    5300   -102923.24   -93395.285    231.37403    20724    226774.33     15.32585    52.086109    198.08035    -204.1889    435.43532    23.503489    22.158375   0.31993905    435.75526     26.78723   -1455.6436 
    5400   -102843.04   -93405.391    229.18106    20724    226725.05    47.647591    46.625246    9.3013192    87.016208    435.47173    23.499953    22.155041   0.30173738    435.77346    34.761497   -1454.1716 
    5500   -102841.39   -93379.043     229.7807    20724    226809.88    25.368883    -7.482602   -43.084181    126.67343    435.35862    23.507401    22.162063   0.35828827    435.71691    28.195866   -1472.9179 
    5600   -102882.04   -93422.872    229.70356    20724    226422.53     -9.29532   -88.028888    102.61039   -42.467465    435.17553     23.49226    22.147789   0.44983307    435.62537    45.949507   -1455.6556 
    5700   -102867.44   -93417.427    229.48129    20724    226621.08   -16.374253    51.685671   -24.479359    -76.32907     435.2701    23.500005     22.15509   0.40254951    435.67265     31.70118   -1442.9223 
    5800   -102781.64   -93348.754    229.06524    20724    226693.81     97.02809   -54.556977   -132.23837    477.87962    435.08906    23.508665    22.163255   0.49307186    435.58213     32.86983   -1517.5177 
    5900   -102813.75   -93331.779    230.25741    20724    226590.14   -10.501008    21.027804    10.260871   -62.791699    435.29316    23.497778    22.152991   0.39101975    435.68418    21.511665   -1522.3457 
    6000   -102892.51   -93314.722     232.5842    20724    226648.88   -1.1090813    29.955971    120.83578     -154.119    435.44819     23.49664    22.151918   0.31350316     435.7617    10.524718   -1530.2036 
    6100    -102859.4   -93288.811    232.40924    20724    226677.54   -27.241292    209.75779    76.281979   -367.76365    435.28914    23.502418    22.157365   0.39303183    435.68217    21.933765   -1568.4116 
    6200   -102853.78   -93321.582    231.47706    20724    226502.92   -24.567144   -57.964602    74.242111   -89.978941    435.25475    23.494292    22.149704   0.41022659    435.66497    18.311701   -1537.7444 
    6300   -102786.94   -93293.041    230.54694    20724    226512.08    2.3259365    26.819843   -212.89235    193.05031     435.2037    23.496145    22.151451   0.43575198    435.63945    23.088163   -1570.5867 
    6400   -102890.66   -93273.007    233.55218    20724    226589.45    42.599753    62.483676   -153.55508    218.87066    435.21989     23.49972    22.154822   0.42765694    435.64754    16.544814   -1587.5289 
    6500   -102866.75   -93240.591    233.75876    20724    226564.84   -105.67035   -41.502211   -230.01165   -45.497182    435.29748     23.49635    22.151644   0.38886056    435.68634    14.195127   -1609.2894 
    6600   -102818.93   -93249.004     232.3931    20724    226532.63    18.158566   -126.84642    192.52828   -11.206156    435.18276    23.497776    22.152989   0.44622024    435.62898    14.338624   -1610.0572 
    6700   -102739.98   -93243.538    230.60874    20724    226609.33       21.673    222.96418   -29.706044   -128.23914    435.24727    23.500012    22.155097   0.41396597    435.66123   0.92429629   -1600.7304 
    6800   -102875.57   -93267.868     233.3106    20724    226785.19   -83.561942   -47.623995   -2.4824793   -200.57935    435.50612    23.502141    22.157104   0.28454067    435.79066     16.98943   -1583.6619 
    6900   -102844.33   -93282.902    232.18688    20724    226498.84   -84.227022   -81.923919   -276.09282    105.33567    435.41297    23.489811     22.14548     0.331117    435.74408     37.65597   -1599.4688 
    7000   -102832.58   -93243.761    232.85195    20724    226767.09     15.69145   -182.08611   0.55660805    228.60385    435.29257    23.506967    22.161654   0.39131363    435.68389     28.47402   -1627.6225 
    7100   -102738.59   -93235.409    230.77237    20724    226504.07    80.941609    14.144833    160.49375    68.186242    435.16192    23.496857    22.152123   0.45663968    435.61856    4.8869466   -1621.7666 
    7200   -102747.42   -93214.572    231.49271    20724    226645.89    22.013929    185.56274   -81.615573   -37.905374    435.32826    23.499721    22.154823   0.37347143    435.70173 -0.021601122   -1633.0679 
    7300    -102754.8   -93210.573    231.76907    20724    226617.25    64.562657    34.156812   -38.777896    198.30905    435.30006    23.498997     22.15414   0.38757048    435.68763    1.0908785   -1642.3404 
    7400   -102821.02   -93214.581    233.27977    20724    226648.36    16.460622    -13.32729    40.586238    22.122917    435.30803    23.500395    22.155458   0.38358516    435.69161    17.268547   -1651.7783 
    7500   -102719.54   -93184.336    231.54992    20724    226682.59   -55.555435   -48.833672   -7.4536485   -110.37899    435.35422    23.500923    22.155956   0.36049117    435.71471    11.841725   -1673.3264 
    7600    -102733.3   -93187.724    231.80184    20724     226776.5   -57.636222   -126.85468    -91.22412    45.170133    435.30101    23.507227    22.161899   0.38709686     435.6881     15.41278   -1672.9343 
    7700   -102715.36   -93115.663    233.11614    20724    226709.74   -13.055073     118.2245   -157.10893  -0.28078701    435.30947    23.503538    22.158421   0.38286431    435.69234   -9.7980017   -1723.5119 
    7800   -102699.75   -93107.957    232.92424    20724    226706.94    19.437476    85.213029    91.338813   -118.23941    435.06743     23.50993    22.164447   0.50388579    435.57131    3.1678078   -1746.7291 
    7900   -102745.57   -93128.904    233.52831    20724     226522.5   -36.581088    -17.43505    -100.4232    8.1149832    435.07869    23.500061    22.155143   0.49825303    435.57695    16.722081   -1742.8164 
    8000   -102670.16   -93084.628    232.77228    20724     226635.1   -35.527304   0.45274236   -128.85385    21.819196    435.45568    23.495723    22.151054   0.30975929    435.76544    2.7300099   -1770.8333 
    8100   -102743.14   -93096.413    234.25817    20724    226558.76    30.472499   -34.356447   -24.915037    150.68898     435.1162    23.500928    22.155961   0.47950107     435.5957    20.182611   -1783.0044 
    8200   -102659.14   -93058.863    233.13011    20724    226635.09    10.086538    14.566351    45.945897   -30.252632    435.16907    23.503459    22.158347   0.45306677    435.62213    10.571493   -1808.0827 
    8300   -102693.47   -93041.524     234.3849    20724    226626.98    77.090459     98.99537   -192.35513    324.63114    435.46658    23.495009     22.15038   0.30430827    435.77089     24.93594   -1844.5846 
    8400   -102702.98    -93081.96    233.63382    20724    226572.85     20.71467   -7.3600972    37.250902    32.253206    435.05528    23.503305    22.158201   0.50996179    435.56524    46.264729   -1826.6175 
    8500   -102640.69   -93052.725    232.83124    20724    226483.33   -37.607614   -108.78612   -1.2659691   -2.7707518    435.20454    23.494631    22.150023   0.43532753    435.63987    35.316873   -1844.3756 
    8600   -102670.31   -93042.903    233.78904    20724    226483.53   -10.285656    -331.3058    156.78391    143.66492    435.26121    23.493112    22.148591   0.40699516     435.6682    37.631215   -1860.2923 
    8700   -102601.71   -93042.364    232.13633    20724    226629.02    49.916045    70.778586    34.312676    44.656874    434.94994    23.509064    22.163631   0.56263084    435.51257    49.876555   -1875.9276 
    8800   -102544.94   -92996.239    231.87771    20724    226642.52    15.597169    145.04745   -167.09519     68.83924    435.04423    23.507217    22.161889   0.51548634    435.55971    38.721933   -1907.1113 
    8900   -102661.62   -92997.043    234.69163    20724    226651.42    2.0431832    101.98914   -306.01134    210.15174    435.04628    23.507623    22.162272   0.51446176    435.56074    41.675565   -1910.7037 
    9000   -102578.04   -92976.851    233.15236    20724    226582.99   -48.707844    125.23103   -43.050114   -228.30445    435.07965    23.503172    22.158076   0.49777336    435.57743    51.309961   -1940.0273 
    9100   -102625.59   -92951.701    234.91774    20724    226740.16   -44.194109   -82.491885    18.101073   -68.191513    435.14792    23.509478    22.164021   0.46364062    435.61156    40.237903   -1950.2728 
    9200   -102552.85   -92971.672     232.6665    20724    226796.31    52.872763    135.79595   -150.76173    173.58407    435.23093    23.510147    22.164651   0.42213534    435.65306    26.983206   -1922.9043 
    9300   -102556.62   -92921.101    233.98604    20724    226792.65   -67.740615   -160.27558    152.09127   -195.03754    435.23669    23.509801    22.164326    0.4192535    435.65595    21.025602    -1964.831 
    9400   -102529.05   -92880.627    234.29935    20724    226798.17   -53.000783   -204.21392    201.17414   -155.96257    435.22333    23.510448    22.164936   0.42593674    435.64926    50.453604    -2035.577 
    9500   -102589.98   -92882.523    235.73283    20724    226590.96   -39.739892   -258.06732    14.589272    124.25838    435.13048    23.502212    22.157171   0.47235971    435.60284    42.813556   -2034.0892 
    9600   -102570.38   -92862.829    235.73524    20724    226846.06     -76.7166   -22.056116   -62.306682     -145.787    435.34001    23.509779    22.164305   0.36759699     435.7076    40.565851   -2044.3746 
    9700   -102527.54   -92854.418    234.89912    20724    226825.66    42.407694    33.109653   -183.69591    277.80934     435.4455    23.505874    22.160623   0.31485009    435.76035    35.821908   -2054.3691 
    9800   -102486.75   -92841.828    234.21433    20724    226678.96   -45.463375   -243.64999   -15.252807    122.51267    435.15808     23.50603    22.160771   0.45856077    435.61664    42.311028   -2075.8973 
    9900      -102466   -92826.566    234.08121    20724    226733.55   -20.668196   -12.543797    143.99579   -193.45658    435.43323    23.501432    22.156436   0.32098354    435.75422    25.181039   -2073.0101 
   10000   -102467.35   -92797.117    234.82898    20724    226772.36   -59.783158   -188.86706    39.934921   -30.417334    435.54631    23.500392    22.155455   0.26444337    435.81076    28.499976   -2105.7036 
   10100   -102487.18   -92800.284    235.23357    20724    226543.11   -16.025955   -125.02439    10.151132    66.795391    435.42512    23.491779    22.147335   0.32503906    435.75016    5.9066974   -2087.7339 
   10200   -102470.86   -92806.647     234.6829    20724    226892.56    16.188227   -185.77054   -200.49635    434.83158    435.53848    23.506831    22.161525   0.26836012    435.80684    34.770672   -2105.7614 
   10300   -102480.03   -92759.664    236.04649    20724    226733.97   -6.6427743   -134.45341   -61.712007     176.2371    435.25159    23.506357    22.161079   0.41180749    435.66339    24.449088   -2146.0341 
   10400   -102487.31   -92764.511    236.10557    20724       226654   -88.517416    19.765182   -371.01987    85.702438    435.35631    23.499385    22.154505   0.35944482    435.71576    11.828222   -2126.4853 
   10500   -102483.07   -92732.331    236.78392    20724    226921.61   -10.856886    44.476855   -43.012846   -34.034667    435.85345     23.49984    22.154934   0.11087406    435.96433    16.709823   -2161.4896 
   10600   -102480.02   -92740.691    236.50693    20724    226916.13   -15.728037    77.499879   -249.79081    125.10682    435.71841    23.503197      22.1581   0.17839284    435.89681    22.734712   -2160.1284 
   10700   -102392.48   -92705.244    235.24184    20724    226854.97    35.084373    17.144354    151.90177   -63.793005    435.42913    23.507834    22.162472   0.32303569    435.75216    7.0526735   -2185.6444 
   10800   -102331.67   -92657.406    234.92686    20724    226838.12    103.44116    166.05953   -64.237142     208.5011    435.53489    23.504107    22.158958   0.27015392    435.80505   -25.574562    -2204.469 
   10900   -102359.62   -92605.353    236.86966    20724    227009.49    45.981875    19.756453    286.56837    -168.3792    435.71279    23.508183      22.1628    0.1812043      435.894   -33.697454    -2241.215 
   11000   -102324.18   -92629.617     235.4198    20724    226962.02    14.902754    55.177699   -9.9395744  -0.52986438    435.46849    23.512318    22.166698   0.30335677    435.77184   -26.832886   -2224.3379 
   11100   -102470.05   -92578.079    240.21374    20724    227103.26   -70.233846   -98.478058   -104.65782   -7.5656594    435.52052    23.518228     22.17227   0.27734177    435.79786    -30.26244   -2268.0126 
   11200   -102368.06    -92610.96    236.93849    20724    226896.08    27.989223   -75.905641   -97.652201    257.52551    435.40607    23.510587    22.165066   0.33456576    435.74063   -28.213575   -2247.4419 
   11300   -102426.35   -92588.842    238.89108    20724    227073.72   -65.727598   -349.58017    183.90107   -31.503695    435.46724    23.518137    22.172184   0.30397919    435.77122   -30.878676   -2260.1261 
   11400    -102368.3    -92618.28    236.76658    20724    226820.66   -74.031809    23.225632   -352.82625    107.50519    435.23882    23.511195     22.16564   0.41818989    435.65701   0.25977991   -2267.5064 
   11500   -102361.79   -92572.279    237.72554    20724    226744.77    47.014426    126.91394    224.59124   -210.46191     435.2208    23.507748    22.162391   0.42720231      435.648    -24.34831   -2298.9368 
   11600    -102290.5   -92553.168    236.45836    20724     226869.2    42.792448    -11.24954    414.42253   -274.79564    435.50026    23.506652    22.161357   0.28746807    435.78773   -3.7767766   -2335.7687 
   11700   -102324.55   -92578.927    236.65972    20724    226877.88    54.839138   -169.56384    10.555695    323.52556     435.4946    23.507254    22.161925   0.29030248     435.7849   -6.4110159   -2309.6743 
   11800   -102304.44   -92538.047    237.16411    20724    226734.15    8.8319555   -57.310848   -89.574959    173.38167    435.12682    23.509736    22.164264   0.47418775    435.60101    -15.06548   -2344.3969 
   11900   -102364.21   -92555.483    238.19212    20724    226918.53    1.7266434    58.370423    71.759606    -124.9501    435.36496     23.51286     22.16721   0.35512167    435.72008    -6.421083   -2332.4239 
   12000    -102345.8   -92549.022    237.90197    20724    226543.88   -80.998326   -159.46191   -138.40784     54.87477    434.92713    23.505264    22.160048   0.57403467    435.50117   -33.754712     -2318.92 
   12100   -102408.85   -92571.715    238.88197    20724    226828.69    30.196789    -35.84411    146.54081   -20.106331    435.10571    23.515207    22.169423   0.48474424    435.59046   -19.755598    -2307.705 
   12200   -102269.42   -92543.763    236.17483    20724     226625.1   -129.50638    70.125547   -206.24159   -252.40309    434.88265     23.51068    22.165154   0.59627458    435.47893    -13.92222     -2339.33 
   12300   -102406.78   -92493.748    240.72506    20724    226723.27   -72.481972   -129.55109   -96.630362    8.7355377    435.06944    23.510722    22.165194   0.50287973    435.57232   -35.322934    -2371.466 
   12400   -102332.57   -92451.505    239.94889    20724    226850.75   -36.736641   -55.685931     41.76331   -96.287301    435.18322    23.514257    22.168526   0.44599062    435.62921   -15.579297   -2432.3125 
   12500   -102189.27   -92446.012     236.6023    20724    226725.04   -32.086112    27.230584   -21.829269   -101.65965    435.01364    23.512322    22.166703   0.53078168    435.54442   -31.321905   -2424.3751 
   12600   -102246.77   -92450.929    237.87934    20724    226827.61    39.641741    109.76271    169.82226   -160.65975    435.21778    23.512124    22.166515   0.42870805    435.64649   -21.761937   -2431.7237 
   12700   -102161.92   -92408.364    236.85243    20724    226736.84   -39.073284    110.81635   -5.5796397   -222.45656    435.12088    23.510036    22.164548   0.47715964    435.59804   -32.594747   -2461.5649 
   12800   -102202.29   -92423.984    237.45332    20724    226756.53    32.078615    105.37217   -159.59173    150.45541    435.34424    23.505025    22.159823   0.36548232    435.70972   -16.785139   -2466.6461 
   12900   -102212.87   -92441.938    237.27438    20724    226632.94   -5.1923921    191.87342   -313.86688    106.41629    435.08236     23.50569     22.16045   0.49641881    435.57878   -27.056551   -2441.9596 
   13000   -102227.63   -92396.999    238.72399    20724    226513.75    16.943244    141.10075      212.169   -302.44001    435.17052    23.497127    22.152377   0.45233919    435.62286   -31.390634   -2487.5741 
   13100   -102236.71   -92379.976    239.35803    20724     226612.6   -116.33578     13.52073     51.89615   -414.42423    435.24513    23.500239    22.155311   0.41503491    435.66017   -28.567451   -2500.3987 
   13200   -102116.64    -92326.11     237.7502    20724    226677.07     18.90559   -43.039714    149.03032   -49.273834    435.17131    23.505575    22.160341    0.4519433    435.62326   -29.289497   -2560.0108 
   13300   -102129.23   -92312.625     238.3834    20724    226691.07    30.599193   -233.06561   -47.434133    372.29732    434.95869    23.512046    22.166442   0.55825662    435.51694   -28.320883   -2573.3205 
   13400    -102139.7   -92355.978    237.58489    20724    226477.01   -74.313366    10.112094    -43.63626   -189.41593     434.8151    23.504822    22.159632   0.63005146    435.44515    -34.92281   -2525.9442 
   13500    -102101.7   -92262.904    238.92234    20724     226635.3   -5.9572497    1.9705504   -217.38285    197.54055    435.01972    23.507504     22.16216   0.52773877    435.54746   -63.094004   -2591.8824 
   13600   -102101.09   -92256.234    239.06957    20724    226611.94   -33.986394   -31.944711    19.572713   -89.587185    435.00913    23.506579    22.161288   0.53303269    435.54217   -75.366627   -2586.4209 
   13700   -102129.66   -92196.244    241.22004    20724    226587.22   -47.617811   -69.661061    88.335909   -161.52828    434.90467    23.508119     22.16274    0.5852653    435.48993   -87.024036   -2635.8567 
   13800   -102028.67   -92195.001    238.79779    20724    226640.86     -22.9433    15.698787    64.723564   -149.25225     434.9987     23.50836    22.162968   0.53825046    435.53695   -62.944042   -2659.7012 
   13900   -102078.51     -92193.4      240.047    20724    226504.04   -19.131348    49.235143   -35.195917    -71.43327    435.18468    23.496241    22.151542   0.44526197    435.62994   -67.447242    -2664.266 
   14000   -102021.26   -92163.455    239.38396    20724    226742.46   -51.505215   -123.43712   -169.95958    138.88106     435.1925    23.508393    22.162998   0.44135118    435.63385    -56.55446   -2696.3421 
   14100   -102052.95   -92167.552    240.05405    20724    226703.71   -2.1986685   -104.86921    45.490276    52.782933     435.1849    23.506589    22.161298   0.44514979    435.63005   -65.723881   -2686.8056 
   14200   -102003.45   -92161.014    239.01071    20724    226577.54   -43.425685    51.557143   -65.148356   -116.68584    435.01628    23.504601    22.159424   0.52945817    435.54574   -71.464585   -2691.3145 
   14300   -101975.61   -92200.217    237.38279    20724    226695.33    28.557776   -6.6480563     37.21399    55.107395    435.13361     23.50754    22.162194   0.47079266    435.60441   -63.627197   -2661.1212 
   14400   -102067.11   -92177.438    240.15774    20724    226578.57    5.3036471   -17.953005    34.764602  -0.90065576    434.67267    23.513943    22.168231     0.701264    435.37394   -57.163103   -2695.0261 
   14500   -101954.24   -92153.983    237.98638    20724    226581.37    23.043327    100.32966     59.61935   -90.819028    434.83294    23.509754    22.164282    0.6211294    435.45407     -56.1698   -2719.6603 
   14600   -102024.41   -92164.936    239.42439    20724    226560.77    16.780924   -94.092691    126.91352     17.52195     434.8769    23.507497    22.162154    0.5991495    435.47605   -44.180373   -2722.1131 
   14700   -102022.47   -92189.138     238.7897    20724    226327.56    136.56442    142.27832    36.090746    231.32419    434.70735    23.499978    22.155064   0.68392648    435.39127   -41.076847   -2716.0706 
   14800   -102016.58   -92202.244     238.3284    20724    226753.75   -40.524712   -1.8197647    -96.02109   -23.733281    435.05149    23.512788    22.167141   0.51185612    435.56334   -24.148997   -2699.1667 
   14900   -102023.87   -92129.193    240.27942    20724     226691.7    9.3525878    20.530608    13.826765   -6.2996102    434.91078    23.513373    22.167693   0.58220885    435.49299   -42.389974   -2759.0657 
   15000   -102046.81   -92123.349    240.97829    20724    226694.51    4.9664311   -119.86103    19.067951    115.69237    434.73784    23.518195     22.17224   0.66868236    435.40652   -50.358886    -2757.805 
   15100   -101973.86   -92158.845    238.34495    20724     226509.3    43.377001   -14.786874   -213.92848    358.84635    434.73775    23.508589    22.163183   0.66872451    435.40648    -36.65414   -2743.6786 
   15200   -101995.09   -92164.682    238.71872    20724    226647.96    87.185385    127.05786    29.975086    104.52321    434.84866    23.512784    22.167138   0.61326996    435.46193   -27.053927   -2748.0897 
   15300   -102078.41   -92156.873     240.9316    20724    226389.25   -116.84152   -334.64729   -28.672737    12.795457    434.55053     23.50742    22.162081   0.76233716    435.31286   -32.000555   -2749.2378 
   15400   -102039.09    -92129.63    240.63839    20724    226531.28   -76.082104   -105.31296   -239.17458    116.24123    434.58389     23.51389    22.168181   0.74565551    435.32954   -30.054959   -2777.1712 
   15500   -101950.27   -92119.438    238.72888    20724    226362.74    47.590238    176.16084    16.153026   -49.543152    434.49903    23.507437    22.162097   0.78808742    435.28711   -40.259004   -2788.4244 
   15600   -101934.56   -92080.639    239.28966    20724    226484.61    35.372231    182.23322   -134.54913      58.4326    434.47489    23.514417    22.168678   0.80015538    435.27504    -55.76504   -2809.8346 
   15700   -101979.87   -92089.194    240.18218    20724    226493.47    27.938913   -23.631513    49.112165    58.336088    434.56276      23.5125     22.16687   0.75622198    435.31898   -47.959953   -2809.8312 
   15800   -101927.95   -92040.361    240.10723    20724    226366.67    14.703903    96.635074    22.507212   -75.030576    434.71444    23.501816    22.156798   0.68038015    435.39482   -63.015653   -2844.7858 
   15900   -101835.42   -92031.317    238.07978    20724    226578.45    43.852893     46.82285   -73.428342    158.16417    434.44919    23.519984    22.173926   0.81300737    435.26219   -73.644213   -2840.8392 
   16000   -101801.69   -91983.702    238.41714    20724    226358.51    -30.73563    60.456617   -108.12423   -44.539271    434.37677    23.510525    22.165009   0.84921625    435.22598   -59.146011   -2905.7462 
   16100   -101932.23   -91999.604    241.20088    20724    226444.54    36.890167    53.208057    202.78711   -145.32467     434.3987    23.514399    22.168661   0.83824845    435.23695   -68.924848   -2885.0323 
   16200   -101950.52   -92031.317    240.87492    20724     226450.6    12.956545    200.78146    -34.47705   -127.43478    434.42522    23.513996    22.168281   0.82498845    435.25021    -46.30937   -2874.7039 
   16300   -101879.83   -91993.593    240.07435    20724       226343   -35.422398   -47.819047   -158.83484    100.38669    434.36426    23.510058    22.164568   0.85546894    435.21973   -78.672909    -2880.289 
   16400   -101919.41   -91956.876    241.92708    20724    226295.89    74.805608    122.00274    132.37227   -29.958187    434.39795      23.5067    22.161402   0.83862442    435.23658   -69.032276   -2935.7759 
   16500   -101900.36   -91963.085    241.31374    20724    226384.49   -26.411504      60.6155   -74.778841   -65.071171    434.61227    23.505503    22.160274   0.73146295    435.34374   -78.306771   -2914.9914 
   16600   -101838.47   -91974.331    239.53784    20724    226377.46   -50.246554    4.8111143    146.35832    -301.9091    434.44891    23.509557    22.164096   0.81314429    435.26206   -52.954052   -2927.6126 
   16700   -101898.29   -91972.327    241.03918    20724    226348.85   -31.587475    41.298845   -187.33353     51.27226    434.51579    23.506262     22.16099   0.77970412     435.2955   -45.082923   -2939.7552 
   16800   -101910.64   -91953.463    241.79717    20724    226499.67    17.790493   -34.925123    161.10662   -72.810014    434.68602    23.509488    22.164031   0.69458974    435.38061   -51.906836   -2952.9491 
   16900    -101849.3   -91964.571    240.03771    20724    226617.43   -16.077329   -184.98818    156.48148   -19.725286    434.79923    23.512537    22.166905   0.63798686    435.43721   -37.245826    -2950.622 
   17000   -101821.58   -91878.694    241.45007    20724    226491.86    16.444774     116.0296    136.74514   -203.44043    434.41443     23.51643    22.170575   0.83038596    435.24481   -65.585836    -3014.564 
   17100      -101807   -91919.719    240.09965    20724       226574    -20.52935    154.28441   -109.84426   -106.02821    434.62601    23.514968    22.169197   0.72459418    435.35061   -42.343301   -2992.4523 
   17200   -101936.58   -91882.416    244.15235    20724    226337.93   -2.5097773   -108.57435   -167.97304    269.01806    434.41134    23.508521    22.163119   0.83192991    435.24327   -79.710628   -3005.3764 
   17300   -101855.56    -91892.06    241.95072    20724    226289.39   -39.277296   -189.85185   -317.01656    389.03652    434.47791    23.504199    22.159045   0.79864654    435.27655   -67.747197   -3006.7699 
   17400   -101851.64   -91854.999    242.75533    20724    226433.44    -85.75406   -179.74829   -128.54761    51.033712       434.48    23.511623    22.166043   0.79760143     435.2776   -66.261646   -3041.1852 
   17500   -101769.31    -91894.29    239.80197    20724    226329.09    82.599711   -59.842009    54.912613    252.72853    434.58373    23.503399     22.15829   0.74573619    435.32946    -64.30422   -3015.7795 
   17600   -101798.61   -91865.007    241.22471    20724    226385.96    28.108737   0.99231901    75.890003    7.4438893     434.3127    23.513685    22.167987    0.8812522    435.19395   -62.932792     -3040.95 
   17700   -101804.99   -91811.512    242.67866    20724    226198.54    31.042165    74.881921    493.13326   -474.88868    434.31399    23.503915    22.158776   0.88060422     435.1946   -92.931768   -3071.5196 
   17800    -101731.5   -91784.094    241.55981    20724    226177.43   -32.155704     64.45924   -93.470753   -67.455597    434.11047    23.508327    22.162936   0.98236615    435.09283   -106.42311   -3087.5038 
   17900   -101787.76    -91747.05    243.82553    20724    226498.02   -64.456915   -72.954167   -35.536013   -84.880563     434.6377    23.510709    22.165181   0.71874793    435.35645   -122.61425   -3097.7904 
   18000   -101788.59   -91752.768    243.70698    20724    226378.96    113.82698    108.61103    295.60798   -62.738056     434.5124    23.507917     22.16255   0.78139939     435.2938   -118.28304   -3110.7637 
   18100   -101672.43   -91730.822    241.41888    20724    226296.24   -6.7988654    265.15948   -169.83795   -115.71813    434.63527    23.500299    22.155368   0.71996457    435.35524   -119.17747   -3126.3695 
   18200   -101756.32   -91761.845    242.70277    20724    226365.76   -8.7243038    51.865346   -1.2717168   -76.766541    434.66871    23.503005    22.157919   0.70324685    435.37195   -106.44767   -3108.5299 
   18300   -101680.46   -91724.747    241.76153    20724    226168.64    18.422945   -32.382811   -102.07314    189.72479    434.42699    23.499305     22.15443    0.8241047     435.2511   -131.79415   -3129.9354 
   18400   -101690.98   -91700.489    242.60602    20724    226274.97   -69.917622   -68.973166    76.319824   -217.09953    434.41532    23.505144    22.159935   0.82994199    435.24526    -144.3959   -3133.0853 
   18500   -101713.94   -91743.518    242.11874    20724    226494.16    7.1147277    78.092337   -187.74933    131.00118    434.70205    23.508769    22.163352   0.68657739    435.38862   -139.17348   -3095.1689 
   18600   -101614.49   -91765.388    239.17255    20724    226104.19   -49.300702     -251.602    49.477269    54.222622    434.21906    23.501581    22.156576   0.92806914    435.14713   -126.23314   -3096.1559 
   18700   -101752.61   -91734.291    243.28183    20724    226403.53  -0.86994672    111.77896    88.558037   -202.94683    434.45889    23.510641    22.165117   0.80815322    435.26705   -137.34739   -3111.0642 
   18800   -101635.31   -91721.731    240.73834    20724    226342.76    95.052494    157.66778    148.24008   -20.750371    434.30178    23.511737    22.166151   0.88671146    435.18849   -114.71369   -3154.1842 
   18900   -101641.82   -91677.608    241.96789    20724    226079.08   -12.900709    93.055663   -13.852469   -117.90532    433.91369    23.508544    22.163141    1.0807569    434.99444   -123.52453   -3191.3244 
   19000   -101582.89   -91665.206    240.83813    20724    226313.04    69.011791    167.66761   -40.525963    79.893729    434.48684    23.505186    22.159975   0.79417982    435.28102   -128.06578   -3199.6965 
   19100   -101675.04   -91636.627    243.76983    20724    226083.51   -75.672884   -126.10018   -79.770706   -21.147768    434.07905    23.504296    22.159136   0.99807666    435.07712   -124.93565   -3232.1541 
   19200   -101631.08   -91620.472    243.09464    20724    226280.17   -64.226709   -26.782071   -241.97114    76.073081    434.42831    23.505062    22.159858   0.82344485    435.25176   -111.28665   -3257.4753 
   19300   -101536.88   -91632.416    240.51705    20724    225958.26      63.2448    109.02164    267.90185   -187.18909    434.00891    23.499683    22.154787     1.033147    435.04205   -115.42683   -3257.2838 
   19400   -101709.87   -91647.244    244.35776    20724    226147.83   -24.608156   -64.328432   -165.43874     155.9427    434.08962    23.507353    22.162017    0.9927875    435.08241   -90.014549   -3260.8449 
   19500   -101655.56   -91634.905    243.33862    20724    226132.03   -66.795866   -110.05951   -77.211548   -13.116536     434.1161    23.505814    22.160567   0.97954787    435.09565   -110.47552   -3251.9236 
   19600    -101669.7   -91594.872    244.65405    20724    226134.54   -64.577963    68.745646    -270.4485    7.9689682    434.28994     23.50124    22.156255   0.89263172    435.18257   -114.60095   -3289.7604 
   19700   -101642.96   -91546.066    245.19002    20724    225972.28   -16.356592    -16.42443   -58.575331    25.929984    434.03195    23.499789    22.154886    1.0216272    435.05357   -124.26978   -3337.4063 
   19800   -101564.38   -91548.665    243.21854    20724    226128.68     33.79223     60.69436   -108.13218    148.81451    434.13561    23.505113    22.159906   0.96979745     435.1054   -119.45333   -3340.7236 
   19900   -101630.44   -91526.208    245.36821    20724    226187.86   -109.87987   -124.39819   -152.32219    -52.91922    434.24655    23.505185    22.159974   0.91432697    435.16087   -128.71125    -3345.055 
   20000   -101629.51   -91530.665    245.23735    20724     226048.3   -69.286621    -45.24232    7.0226057   -169.64015    434.19914    23.499215    22.154346   0.93802928    435.13717   -149.29287   -3325.7846 
   20100   -101507.56   -91526.209    242.38418    20724     226139.4    10.522964    254.73719   -38.566563   -184.60174    434.20158    23.503884    22.158747   0.93681034    435.13839   -151.80001   -3329.7596 
   20200   -101603.19    -91502.77    245.27552    20724    226366.28   -1.6905581   -199.38659    35.890819     158.4241    434.54931    23.506261    22.160988   0.76294555    435.31225   -154.14159    -3347.436 
   20300   -101515.33    -91513.95    242.87056    20724       226328   -12.465801    221.22146   -120.11937   -138.49949    434.35514    23.509526    22.164067   0.86003031    435.21517   -130.25653   -3360.0485 
   20400   -101558.83   -91520.332    243.77181    20724    226314.32     57.82177    37.290146   -2.1147901    138.28995    434.26041     23.51138    22.165814   0.90739677     435.1678   -137.89903   -3352.4542 
   20500    -101536.4   -91514.301    243.37362    20724    226479.68   -19.022094   -105.42037     100.5763   -52.222214    434.58787    23.511105    22.165555   0.74366733    435.33153   -131.66637   -3356.9375 
   20600   -101512.95   -91451.648    244.32568    20724    226351.49    38.666663   -26.282028    152.57218   -10.290166    434.38785    23.509861    22.164382   0.84367627    435.23152   -121.79789   -3434.8875 
   20700   -101522.84   -91406.154    245.67064    20724    226451.88    -23.11147    55.669983    65.714053   -190.71845    434.29647    23.517547    22.171629   0.88936499    435.18584    -142.6526    -3456.429 
   20800   -101476.33   -91386.405    245.02065    20724     226425.8    7.8207624    135.04928   -108.80069   -2.7863069    434.50882    23.510446    22.164934   0.78318769    435.29201   -141.62855   -3480.0786 
   20900   -101415.37    -91435.03    242.35958    20724    226498.07    128.83529   -0.2236591   -18.906073     405.6356    434.34177    23.518719    22.172734   0.86671469    435.20849   -132.25551   -3445.8751 
   21000   -101466.92   -91406.839    244.29586    20724    226445.43   -81.184132   -181.98445    142.36221   -203.93016    434.53158    23.510849    22.165314   0.77181065    435.30339    -132.4053   -3465.3952 
   21100   -101458.58   -91394.384      244.396    20724    226236.21    41.548466   -35.430354    27.855095    132.22066    434.26654    23.507156    22.161832   0.90432944    435.17087   -152.24355    -3472.863 
   21200   -101527.08    -91392.08    246.11523    20724     226274.9   -74.490509    40.821852     -122.808   -141.48538    434.16393    23.511944    22.166346   0.95563269    435.11957   -120.50994   -3501.0154 
   21300   -101386.24   -91402.315    242.44661    20724    226190.59    13.338924   -193.19745    58.165227    175.04899     433.8439    23.516232    22.170389    1.1156515    434.95955   -120.39505   -3497.8717 
   21400    -101497.9   -91399.107    245.23607    20724    226350.59    -86.82912   -28.927743   -275.84705     44.28743    433.76939    23.526568    22.180133    1.1529056    434.92229   -105.95843   -3508.1006 
   21500      -101374   -91386.322    242.53766    20724     226099.8      30.2696   -9.5253582    142.22733   -41.893167    433.97655    23.507919    22.162551    1.0493256    435.02587   -109.42808   -3529.1423 
   21600   -101425.47   -91357.455    244.48873    20724    226325.34    67.757912    51.111348   -20.911275    173.07366    433.93123    23.520869     22.17476    1.0719874    435.00321   -123.33299    -3542.878 
   21700   -101469.02   -91352.966    245.65507    20724    226161.48    -15.61984    59.847467     145.1502   -251.85718    434.29727    23.502442    22.157387   0.88896579    435.18623   -131.68473   -3539.1168 
   21800   -101418.62   -91298.498    245.75389    20724    226407.38    41.122534    140.84628    83.798596   -101.27727    434.23226    23.516975    22.171089   0.92146851    435.15373    -132.9776   -3590.9266 
   21900   -101329.63    -91273.93     244.1896    20724    226276.78    31.915969    24.007061    31.237002    40.503843     434.2295    23.510266    22.164764   0.92285205    435.15235   -153.31787   -3597.5539 
   22000   -101390.46   -91256.573    246.08815    20724     226330.4   -60.060405   -53.421008   -83.221752   -43.538454    434.23625    23.512869    22.167218   0.91947647    435.15572   -161.37529   -3602.3506 
   22100   -101501.11   -91323.974    247.13858    20724    226248.63     46.66654   -18.668874    180.12311   -21.454613    434.29436    23.507048    22.161731   0.89042084    435.18478   -172.29043    -3535.247 
   22200   -101392.36    -91319.57    244.60462    20724    226287.09   -35.314969    22.315088   -120.92753   -7.3324605    434.41944    23.505661    22.160423   0.82787813    435.24732   -165.45734   -3541.8523 
   22300   -101422.98   -91285.889    246.16607    20724    226313.51    17.937217   -122.70395    136.09354    40.422061    434.12249    23.515072    22.169295   0.97635253    435.09885   -159.54862   -3585.3379 
   22400   -101395.08   -91304.742    245.03062    20724    226281.67    5.6740962   -34.514081    -96.67361    148.20998    434.18491    23.511728    22.166142    0.9451457    435.13005   -145.54281    -3581.587 
   22500   -101443.68   -91293.726    246.47832    20724    226517.36    51.245309    74.282629   -5.6010961    85.054395    434.41718    23.517679    22.171753   0.82901213    435.24619   -151.14267   -3584.8525 
   22600   -101367.96   -91274.128    245.11566    20724     226354.6   -4.8791064    25.735859   -62.046531    21.673353    434.14954    23.516474    22.170617   0.96283175    435.11237   -153.60482   -3602.1718 
   22700   -101465.61   -91315.102    246.49184    20724    226419.61   -88.089489    128.44608   -101.77923   -290.93531    434.21716    23.518019    22.172073   0.92901905    435.14618   -134.41809   -3576.3162 
   22800   -101338.75   -91300.703      243.761    20724    225947.95   -3.7758004   -4.9186669   -26.971592    20.562858    433.89591    23.502207    22.157166    1.0896445    434.98556    -154.0501   -3590.9773 
   22900   -101358.39   -91230.442    245.94407    20724    226310.86    80.668272    77.310562   -210.93356    375.62782    434.04693    23.516981    22.171095    1.0141371    435.06106   -156.41809   -3654.4738 
   23000   -101310.56   -91197.356    245.58605    20724    226227.72   -15.616603   -30.101047    103.77258   -120.52134    433.91572    23.516216    22.170373     1.079739    434.99546   -167.03149   -3674.3233 
   23100   -101281.66   -91203.653    244.73127    20724    225972.83     20.21836    65.874801    87.024564   -92.244286    433.72763     23.50806    22.162684    1.1737869    434.90141   -166.18542   -3678.2106 
   23200    -101277.6   -91158.602     245.7266    20724    226133.73    45.328615    241.01549   -276.74168    171.71203    433.89108    23.511997    22.166396    1.0920583    434.98314   -167.86602    -3719.901 
   23300   -101305.86   -91167.372    246.19996    20724    226161.45     46.99763    37.392207    55.255869    48.344814    433.88667    23.513558    22.167868    1.0942664    434.98093     -193.673   -3685.9782 
   23400   -101282.95   -91141.105    246.28146    20724    226219.46    4.1131239   -222.29146      244.887   -10.256168    433.91061    23.515925    22.170099    1.0822934    434.99291   -175.47874   -3727.3362 
   23500   -101336.55   -91120.159    248.09172    20724    226130.32   -104.00021    -6.186656   -14.194986     -291.619    433.87955    23.512133    22.166524    1.0978249    434.97738   -185.66701   -3737.1491 
   23600   -101365.05   -91119.181    248.80769    20724    226184.53    21.079155   -58.937193     341.0046   -218.82994    434.09176    23.509202    22.163761   0.99171828    435.08348   -180.19543   -3751.8325 
   23700   -101303.35   -91106.172    247.62527    20724    226375.46    -47.35497   -102.31056   -22.373702   -17.380646    434.00345    23.521515     22.17537    1.0358763    435.03932   -188.70938   -3747.6447 
   23800   -101199.59   -91113.884     244.9182    20724    226221.36    58.664966    92.449398   -176.81961    260.36511    434.17467    23.508871    22.163449   0.95026396    435.12494   -163.67662   -3774.6947 
   23900   -101359.83   -91090.372    249.38043    20724    226320.83    -3.200443   -76.814898    106.58755   -39.373982    434.16928    23.514185    22.168459   0.95295846    435.12224   -161.25707   -3798.2004 
   24000   -101286.38   -91118.383    246.91652    20724    226211.11     51.15904    97.723104   -139.40362    195.15763    434.00967    23.512807    22.167159    1.0327642    435.04244   -175.15902    -3762.058 
   24100   -101197.13   -91065.374    246.03652    20724    226182.04    27.541485    69.955163   -41.032189    53.701482    434.40033    23.500722    22.155766   0.83743644    435.23776   -164.85875   -3826.4499 
   24200   -101162.84   -91000.581    246.77711    20724    226133.67   -68.822033   -11.815301    53.241238   -247.89203    434.30672    23.500741    22.155784   0.88423911    435.19096   -187.71681    -3863.676 
   24300    -101314.1    -91043.47    249.40888    20724    226236.34    -112.6831   -134.16646    36.578277    -240.4611    434.24623    23.507712    22.162357   0.91448503    435.16071   -171.88714   -3835.1414 
   24400   -101193.13   -91055.277    246.18456    20724    226157.34    4.1202224    59.359179    120.44264   -167.44115    434.11556    23.507145    22.161822   0.97982223    435.09538   -145.15983   -3858.5457 
   24500   -101141.66   -91034.816    245.43152    20724    226192.84   -75.743878   -42.337565   -63.625437   -121.26863    434.17664    23.507336    22.162002   0.94927831    435.12592   -167.49832    -3851.248 
   24600   -101201.95   -91018.133    247.30078    20724    226035.76    27.757368    59.155869    217.81175   -193.69552    433.97211    23.504709    22.159525    1.0515456    435.02365   -178.24066   -3867.8776 
   24700   -101223.27   -91028.446    247.56802    20724    226200.71    15.846258    13.579197    162.13698    -128.1774     434.1354    23.508861     22.16344   0.96989975     435.1053   -173.37996   -3858.4701 
   24800   -101186.79   -91029.299     246.6615    20724    226285.96    36.351857    189.66664   -290.61985    210.00878     434.0366    23.515967    22.170139    1.0193014     435.0559   -187.90422   -3843.7716 
   24900   -101246.55   -91039.649    247.86141    20724    226078.54    -23.36547   -91.258255   -324.10379    345.26563    433.78107    23.512109    22.166502    1.1470632    434.92814   -185.49693   -3840.5907 
   25000   -101078.78   -90989.903    244.99525    20724    226131.76    6.3816084   -12.724877    79.317416   -47.447714    433.84651    23.513103    22.167439     1.114345    434.96086   -186.78547   -3888.2451 
   25100    -101158.6   -90933.832    248.29526    20724    226209.01    32.133657    168.35342    194.24225    -266.1947    433.99539    23.513085    22.167421    1.0399048     435.0353   -194.71668   -3935.2934 
   25200   -101218.96    -90956.33    249.21467    20724    226054.78    9.1153982    105.73579    141.78664   -220.17623    433.70445     23.51295    22.167295    1.1853734    434.88983   -196.94383   -3919.0353 
   25300   -101007.79   -90948.284    244.28198    20724    226069.42    107.54472    336.89649    184.23492   -198.49723    433.73202    23.512964    22.167308    1.1715895    434.90361   -192.28983   -3934.1588 
   25400    -101103.9   -90893.447    247.94756    20724    226019.68    -9.240056     27.59589    106.93633   -162.25239    433.71007    23.510972     22.16543    1.1825639    434.89264   -200.25163   -3978.2809 
   25500   -101159.15   -90881.482     249.5797    20724    226076.46    0.0451493   -36.010517    15.705238    20.440728    433.83282    23.510598    22.165077    1.1211891    434.95401   -196.70736   -3994.4134 
   25600   -101120.74   -90823.864    250.04625    20724    226019.36   -72.048746     74.56702   -394.66047    103.94721    433.82213    23.507919    22.162551    1.1265339    434.94867   -216.13573    -4031.076 
   25700   -101097.82   -90852.434    248.79587    20724    226072.13   -99.788352   -184.77089    10.931545   -125.52571    433.81905    23.510747    22.165217    1.1280772    434.94712   -222.25366   -3995.7615 
   25800   -101101.46   -90864.881    248.58199    20724     226131.1   -5.2922815    23.069419   -170.03043    131.08417    433.73589    23.516067    22.170233    1.1696544    434.90555   -220.67654   -3989.0273 
   25900    -101140.8   -90826.425    250.47115    20724     226198.5   -21.421442   -144.41033    116.72201   -36.576002    433.87186    23.515885    22.170062    1.1016685    434.97353   -226.03705   -4020.1676 
   26000   -101061.72    -90832.23    248.40989    20724    226111.81    10.462104    264.31216    18.901411   -251.82725    433.96682    23.508806    22.163388     1.054191    435.02101   -206.63503   -4038.9046 
   26100   -101106.62    -90820.44    249.78641    20724    226452.27   -70.661626   -75.294319    192.92196   -329.61252    434.38632    23.515136    22.169355   0.84443783    435.23076   -215.24241   -4029.2612 
   26200    -101071.6   -90801.454    249.39706    20724    226245.84   -26.222384   -95.256083   -64.305259     80.89419     434.1602    23.510535    22.165018   0.95750016     435.1177   -221.11546   -4052.4629 
   26300   -101034.47   -90835.107    247.67816    20724    226489.55   -13.130121   -11.842711     53.39444   -80.942093    434.21432    23.521728     22.17557   0.93044117    435.14476   -189.24093   -4045.4732 
   26400   -101073.92   -90835.575    248.62481    20724    226415.77   -38.369537    146.13021   -307.83627    46.597455    434.45236    23.511453    22.165883   0.81141943    435.26378   -179.97244   -4056.0241 
   26500   -100982.88   -90751.469    248.45637    20724    226491.15    64.909346    105.29011   -49.671016    139.10894    434.25751    23.520642    22.174546   0.90884607    435.16635   -195.68529   -4127.1628 
   26600   -101054.99   -90738.719     250.5172    20724    226379.47   -56.874098    99.073881    156.80464   -426.50081    434.27485    23.514373    22.168636   0.90017723    435.17502   -179.49794   -4155.8614 
   26700   -101059.53   -90726.485    250.92461    20724    226486.23    1.7324479    -105.0965   -129.89482    240.18866    434.50251    23.513754    22.168052    0.7863428    435.28886   -204.49338   -4144.0594 
   26800   -100966.13   -90784.005    247.25973    20724    226299.72    95.885409    4.8337527    41.329643    241.49283    434.38364    23.507286    22.161955   0.84577988    435.22942   -192.05665   -4109.2174 
   26900   -101026.49   -90782.987    248.75011    20724    226559.16   -94.523608   -173.92766   -8.8358434   -100.80732    434.42391    23.519667    22.173627   0.82564459    435.24956   -164.88094   -4121.5927 
   27000   -101028.54   -90778.465    248.90974    20724    226419.12   -1.6580748    134.95938    114.70786   -254.64146    434.44721    23.511766    22.166179    0.8139954     435.2612   -168.80596   -4132.1402 
   27100   -100971.66   -90776.044    247.58727    20724    226474.58    22.876328    13.124087   -26.830046    82.334943    434.81778    23.504624    22.159444   0.62871049    435.44649   -183.46652   -4120.0973 
   27200   -101038.95   -90785.034    249.00292    20724       226598   -46.219119   -105.94509   -203.26742    170.55515    434.88533    23.509201     22.16376   0.59493525    435.48026   -186.67208    -4101.478 
   27300    -101054.3   -90800.369    249.00331    20724    226261.81   -3.6385947    80.536689   -173.05547    81.602999    434.59468    23.499609    22.154717    0.7402601    435.33494    -180.7182   -4105.1685 
   27400   -101034.71   -90787.728    248.83465    20724    226439.19   -42.048815    13.095507    5.3762706   -144.61822    434.61318    23.508318    22.162928    0.7310105    435.34419   -172.49717   -4120.3724 
   27500   -101059.72   -90833.316    248.33483    20724    226340.38    1.9001011   -5.0760847    119.50341   -108.72703    434.43162      23.5081    22.162722   0.82179144    435.25341   -149.80615   -4105.6365 
   27600   -101066.12   -90848.087    248.13157    20724    226481.46    76.925362    183.52618   -242.67715    289.92706    434.62008    23.510326    22.164821    0.7275604    435.34764   -153.19156   -4088.6455 
   27700   -101133.28   -90868.506    249.26673    20724    226350.97   -6.9494604   -6.5689275     -135.103    120.82355    434.64824    23.502791    22.157717   0.71347851    435.36172   -134.95769   -4086.8482 
   27800   -101107.91   -90824.219    249.72611    20724    226647.38   -101.59858   -203.45668   -136.64778    35.308721    434.61686    23.519023     22.17302   0.72916809    435.34603   -140.43179   -4114.2422 
   27900   -101123.28   -90818.796    250.23104    20724    226251.68   -6.2520439    72.820441    4.8375693   -96.414142    434.61762    23.498463    22.153636   0.72878975    435.34641   -142.08734   -4137.2807 
   28000   -101058.82   -90796.601    249.20465    20724    226676.48   -19.879683    55.342555   -93.807172   -21.174432    434.99759    23.510238    22.164737   0.53880727    435.53639   -152.89728   -4136.8111 
   28100   -101012.14   -90789.191    248.25107    20724    226501.99    8.5420313    30.708055   -44.562792    39.480831    434.67068    23.510023    22.164535   0.70225815    435.37294   -161.93158   -4141.8132 
   28200   -101016.11   -90780.897    248.54875    20724    226380.04    -17.78869    8.9770524    88.845071   -151.18819    434.71961     23.50237     22.15732   0.67779365    435.39741   -148.00818   -4168.8369 
   28300   -101113.82   -90804.114    250.35771    20724     226475.9    38.849776    -57.72536   -105.33499    279.60968    434.89523    23.502599    22.157536    0.5899831    435.48522   -148.83658   -4145.5421 
   28400    -101018.7   -90797.569    248.20688    20724    226410.74   -27.731125   -107.77197    -221.5263     246.1049    434.41909    23.512092    22.166486   0.82805592    435.24714   -169.93484    -4128.979 
   28500   -101088.11   -90797.409    249.89617    20724    226455.18    28.371111   -116.18183   -181.19386    382.48903    434.37972    23.515465    22.169666   0.84773929    435.22746   -163.69369   -4138.6888 
   28600   -101011.77   -90808.557     247.7717    20724     226284.1   -28.228374   -2.3073037   -88.954503    6.5766856    434.38243    23.506507    22.161221   0.84638502    435.22881   -173.08897   -4121.4692 
   28700   -101075.11   -90776.078    250.09857    20724     226273.2   -24.801256    38.081354    140.36374   -252.84887    434.27711    23.508791    22.163374   0.89904322    435.17616   -179.78158   -4150.0811 
   28800   -101126.25   -90754.193    251.87178    20724    226163.52   -83.911766   -59.051089    89.718795   -282.40301     433.9581     23.51173    22.166145     1.058548    435.01665   -178.94886   -4175.9737 
   28900   -101022.85   -90728.065    249.99553    20724     225905.1    57.727944    176.91211   -51.829165    48.100882    433.91741    23.499396    22.154516    1.0788946    434.99631   -171.73053   -4221.5448 
   29000   -101046.25   -90718.999    250.78385    20724    226264.35   -5.1392685    49.474298    49.444265   -114.33637    433.99565    23.515953    22.170126    1.0397733    435.03543   -197.21254   -4194.7734 
   29100   -101024.64   -90687.971    251.01247    20724    226069.74   -119.33181   -54.050075   -113.42421   -190.52113    433.85506    23.509647     22.16418    1.1100693    434.96513   -184.37985    -4238.227 
   29200   -100868.69   -90655.719     248.0087    20724    226030.21    -14.63494    6.8700991   -112.47256    61.697636    433.71818      23.5113    22.165739    1.1785077    434.89669   -198.73566   -4263.6395 
   29300   -100959.89   -90661.337    250.08694    20724    225997.12    28.244694    67.040433   -31.565878    49.259527    433.78654    23.507727     22.16237    1.1443316    434.93087    -198.3544   -4263.0887 
   29400   -100942.39   -90619.833    250.66989    20724     226203.4    15.569495    146.38516   -32.774025   -66.902652    433.98668    23.513029    22.167369     1.044258    435.03094   -207.07396   -4288.7915 
   29500   -101013.37   -90624.972    252.26875    20724    226181.27   -113.85348   -112.44582    -195.2411   -33.873527    434.15984     23.50719    22.161864   0.95767867    435.11752   -208.08952   -4278.8947 
   29600   -100901.32   -90598.853    250.18186    20724    226155.82    3.0108138   -37.833107   -97.572799    144.43835    434.07559    23.508148    22.162768   0.99980677    435.07539    -228.5254   -4290.9374 
   29700   -100833.75   -90573.972    249.14545    20724    226185.55    4.2403716   -30.690034   -249.78749    293.19864    433.79451    23.517308    22.171403     1.140344    434.93486   -212.51953   -4331.2196 
   29800   -100879.12    -90580.93    250.07815    20724    226180.24    33.438432    86.556947   -113.16219    126.92054    433.90375    23.514072    22.168352    1.0857241    434.98948   -208.20957   -4329.9153 
   29900   -100925.32   -90590.053     250.9784    20724    226166.57   -11.820887   -28.832951   -17.995734    11.366024    433.85879     23.51458    22.168831    1.1082074    434.96699   -212.13728   -4317.3252 
   30000   -100944.94   -90571.059    251.91619    20724    226034.58   -10.273401   -70.612474   -21.261106    61.053377    433.62919     23.51394    22.168228    1.2230062    434.85219   -202.59357   -4352.8798 
   30100   -100992.67   -90591.945    252.56794    20724    226325.65   -64.149301   -43.094028    -8.864208   -140.48967    433.76466      23.5254    22.179032    1.1552686    434.91993   -194.37594   -4329.9901 
   30200   -100751.75   -90565.541    247.35889    20724    226082.71    104.22173     110.9921    110.66059    91.012512    433.41081    23.522367    22.176173    1.3321959      434.743   -224.51903    -4340.359 
   30300   -100834.32   -90610.815    248.26445    20724    226196.35    32.173643    182.02557   -109.68612    24.181481    433.50018    23.525852    22.179458    1.2875107    434.78769   -220.70195   -4292.3386 
   30400   -100841.01   -90583.999    249.07819    20724    226134.36    23.411393    1.3455279   -9.9986663    78.887318    433.37219    23.526102    22.179694    1.3515035     434.7237   -218.27436   -4325.7729 
   30500   -100783.63   -90571.062    247.99882    20724    226113.59    107.97828    46.080526   -13.714469    291.56877    433.54762    23.520261    22.174187      1.26379    434.81141   -196.68283   -4365.6141 
   30600   -100955.09    -90619.71    250.98126    20724     226066.1   -107.46761   -124.46501    33.345852   -231.28367    433.55546    23.517578    22.171658    1.2598683    434.81533   -190.45299   -4316.1641 
   30700   -100929.92   -90558.228    251.86302    20724    226121.89    24.868084      116.344   -2.6673874   -39.072365    433.40918     23.52445    22.178136     1.333011    434.74219   -204.12029   -4370.1039 
   30800   -100942.16   -90602.526    251.08453    20724    226013.93   -4.4767347   -68.624665   -67.588918    122.78338    433.31899     23.52128    22.175148    1.3781047     434.6971   -168.49851   -4365.4335 
   30900   -100909.01    -90577.54    250.88634    20724    225813.79    68.212193    197.11806    69.461438   -61.942917    433.42798    23.507908    22.162541    1.3236122    434.75159   -182.26044   -4388.0614 
   31000   -100927.49    -90620.09    250.30179    20724    225925.63   -58.013417   -208.62021    113.81047   -79.230514     433.1856    23.520306    22.174229    1.4448013     434.6304   -176.72412   -4342.1928 
   31100   -100748.46   -90550.729    247.63866    20724    225846.85    60.623791      104.724   -98.060713    175.20809    433.25205    23.514401    22.168663    1.4115756    434.66362   -193.85181   -4402.3122 
   31200   -100841.85    -90544.28    250.06296    20724    225758.03   -4.8597945   -47.004746     145.1903   -112.76494    433.35198    23.507066    22.161747     1.361611    434.71359   -189.08697   -4414.6467 
   31300   -100905.22   -90555.035    251.34079    20724    225678.18     53.59809   -23.998522      26.0117    158.78109    433.34748     23.50303    22.157943    1.3638624    434.71134   -176.76369   -4425.4517 
   31400    -100813.3    -90608.86    247.80153    20724    225499.93   -68.369369   -62.023074   -180.36725    37.282222    433.00192    23.503119    22.158026    1.5366419    434.53856   -161.31335   -4384.1164 
   31500   -100941.18   -90631.132    250.36602    20724    225644.71    82.556058    86.412393   -99.691253    260.94703     432.9893    23.511006    22.165462    1.5429494    434.53225   -156.11027     -4374.62 
   31600   -100930.85    -90602.46    250.81154    20724    225667.56   -51.053723   -95.852604   -210.36369    153.05513    433.07356    23.509909    22.164427    1.5008176    434.57438   -149.19432   -4402.6062 
   31700   -100938.67   -90610.433    250.80772    20724    225530.54    7.3722932   -33.326822   -50.337146    105.78085    432.94865    23.506161    22.160894    1.5632765    434.51192   -172.39338   -4378.8996 
   31800   -100922.53   -90640.764     249.6794    20724    225746.19    31.155793    114.36326    99.305539   -120.20142    433.01149     23.51569    22.169877    1.5318536    434.54335   -164.72583   -4352.2016 
   31900    -100898.6   -90578.309    250.61481    20724    225701.67    21.723929   -205.43787     260.9281    9.6815536    433.05155    23.512283    22.166666    1.5118264    434.56337   -166.66801   -4415.1905 
   32000   -100836.96   -90524.643    250.42113    20724    225558.26   -67.243937     -48.7503   -88.609439    -64.37207    432.83089    23.510803     22.16527    1.6221546    434.45305   -172.01136   -4464.4595 
   32100   -100908.66   -90566.085    251.15585    20724    225728.07   -68.620981    162.89038   -254.79903   -113.95429    432.85229     23.51907    22.173064     1.611457    434.46374   -144.19693   -4450.0631 
   32200   -100793.34   -90522.017    249.42557    20724    225695.73    107.58696    132.16598   -1.7974036    192.39231    433.24254     23.50679    22.161487    1.4163297    434.65887   -172.48612   -4473.2534 
   32300   -100803.08   -90509.891    249.95679    20724    225641.66   -73.316467   -24.830946   -99.584356   -95.534099    432.92244    23.512663    22.167023    1.5763786    434.49882   -177.50864   -4476.9413 
   32400   -100704.62   -90514.852    247.44532    20724    225673.21    128.01333    151.58758    276.79104    -44.33862    432.82335    23.516998     22.17111     1.625926    434.44927    -193.2626   -4463.6758 
   32500   -100960.88   -90541.299    253.02592    20724    225645.23   -90.171468    126.66649   -131.54185   -265.63905    432.68194    23.519383    22.173359     1.696632    434.37857    -159.0153   -4466.5015 
   32600   -100806.83   -90506.348     250.1338    20724     225706.5   -76.618602   -92.502868    -30.69015   -106.66279    432.71775    23.521602    22.175451    1.6787241    434.39648   -169.34539   -4489.2444 
   32700   -100802.76   -90502.182    250.13609    20724    225632.27    82.382768    93.608159    -147.1151    300.65524    432.81656    23.515049    22.169273    1.6293209    434.44588   -189.18383   -4486.0825 
   32800   -100843.48   -90511.254    250.90476    20724    225510.28   -45.720537   -76.067737   -100.14805    39.054179    432.72412    23.511202    22.165646    1.6755378    434.39966   -175.18835   -4489.2067 
   32900   -100839.82   -90540.532    250.10471    20724    225511.84    55.013145    158.14195    107.63904   -100.74155    432.64827    23.513344    22.167666    1.7134652    434.36173    -148.7397   -4491.1154 
   33000   -100790.89   -90540.109    248.92694    20724    225587.39   -7.6517235    63.953466    133.96505   -220.87368    432.73481    23.514931    22.169162    1.6701967      434.405   -168.69106   -4468.3156 
   33100   -100780.85   -90513.058    249.34005    20724    225455.58    33.438092    108.13411    191.77731   -199.59714    432.84317    23.505118     22.15991    1.6160149    434.45919   -164.45374   -4505.7462 
   33200    -100831.4   -90514.437    250.53406    20724    225500.02     12.36455    9.0134553    224.70988   -196.62969    433.00584    23.503018    22.157931    1.5346815    434.54052   -174.65864   -4492.4599 
   33300   -100767.27   -90500.593    249.31289    20724    225551.37    58.114666    91.622436    49.670154    33.051407    432.85614    23.509758    22.164285    1.6095282    434.46567   -177.37202    -4510.202 
   33400   -100941.53   -90512.837    253.24717    20724    225837.88    -52.42327   -90.395871   -156.12791    89.253972     433.0817    23.518558    22.172582    1.4967503    434.57845   -184.90991   -4475.4338 
   33500   -100943.32   -90503.638    253.51404    20724    225573.21   -76.159811   -145.47056    14.903264   -97.912137    433.22868    23.500785    22.155826    1.4232594    434.65194   -180.62616   -4498.3409 
[...]
  491800   -95898.745   -84218.165    283.64766    20724    220954.57   -87.939473    -141.6111   -152.99758     30.79026    423.63103    23.520948    22.174835    6.2220836    429.85312    5424.1975   -23614.455 
  491900   -95865.261   -84193.297    283.43844    20724    221225.35   -43.436554     41.37256    139.41019   -311.09241    423.68085    23.533973    22.187114    6.1971744    429.87803    5409.2982   -23617.474 
  492000   -95860.338   -84250.701     281.9249    20724    221062.53    52.934265    174.56014   -164.53657    148.77923    423.57128    23.528353    22.181816    6.2519594    429.82324    5438.6696   -23599.948 
  492100   -95956.245    -84252.82    284.20243    20724    221202.43    41.510556    15.882207    273.83748   -165.18802    423.72361    23.531566    22.184845    6.1757928    429.89941    5441.4476   -23601.196 
  492200   -95722.362   -84189.283    280.06581    20724    220875.97   -36.226036    164.00851   -292.18905    19.502435    423.46996    23.521236    22.175107    6.3026183    429.77258    5427.0752   -23656.458 
  492300   -95768.195   -84188.363    281.20112    20724    220936.41     39.01747   -46.875586    431.73295   -267.80496    423.45176     23.52496    22.178617    6.3117214    429.76348    5453.6536   -23688.536 
  492400   -95806.998   -84182.917    282.27567    20724    220947.36    67.759185    52.226072   -39.818667    190.87015    423.21425    23.532143    22.185389    6.4304766    429.64472    5461.7632   -23703.423 
  492500   -95701.233   -84185.866    279.63567    20724    220648.04    15.197501    65.034892   -69.480109     50.03772     423.1819    23.517097    22.171204    6.4466499    429.62855    5455.6614   -23703.554 
  492600   -95796.743   -84215.072     281.2458    20724    221102.47    50.878004     103.6353    175.90604   -126.90732    423.44935    23.533866    22.187013    6.3129257    429.76227    5464.6705   -23669.844 
  492700    -95892.41   -84245.889     282.8206    20724    221100.95    136.95723    310.46466    216.42244    -116.0154    423.49153    23.532613    22.185833    6.2918371    429.78336    5480.2163   -23661.738 
  492800   -95761.907   -84202.847     280.6967    20724    221025.37   -68.356096   -49.692522   -173.07053    17.694761    423.34709    23.532604    22.185824    6.3640575    429.71114    5460.1933   -23679.025 
  492900   -95881.402   -84217.708    283.23761    20724     220927.5    5.1003157    19.064716   -75.254674    71.490906    423.43389    23.524982    22.178638    6.3206538    429.75455    5451.6884   -23665.027 
  493000    -95916.61   -84184.124    284.90814    20724    221074.66   -38.150498    -159.9514    54.865462   -9.3655585    423.52738    23.530218    22.183575    6.2739122    429.80129    5439.6582   -23679.736 
  493100   -95851.907   -84176.945    283.51125    20724    221074.58    88.347715    104.76894    19.687946    140.58626    423.47621    23.531635     22.18491    6.2994964     429.7757    5439.5128   -23692.283 
  493200   -95783.097    -84193.49    281.43852    20724    221055.34    38.759354   -48.852515   -103.55083    268.68141    423.55802    23.528339    22.181802    6.2585878    429.81661     5442.648   -23678.482 
  493300   -95855.823   -84170.864    283.75402    20724    221056.18    72.038169    115.32724   -37.451926    138.23919    423.87954    23.519459    22.173431      6.09783    429.97737    5444.1034   -23708.088 
  493400   -95730.123   -84174.486     280.6136    20724    220878.13   -33.539723    7.6812279    157.59155   -265.89195    423.96959    23.507488    22.162145    6.0528073    430.02239    5462.0642   -23722.531 
  493500   -95776.226   -84117.499    283.11699    20724    220851.43   -55.205424    3.9039363   -242.90424    73.384029    423.75124    23.512122    22.166514    6.1619793    429.91322    5454.3064   -23773.063 
  493600   -95821.717   -84141.203    283.64606    20724    221132.64    -19.72177   -238.06617    134.41243    44.488433    423.93555    23.521972      22.1758    6.0698256    430.00537    5447.9545   -23738.216 
  493700   -95724.687    -84157.34    280.89795    20724    220895.35   -61.368431   -165.97132    46.367962   -64.501941    423.68529     23.51629    22.170443    6.1949567    429.88024     5446.137   -23728.102 
  493800   -95910.697    -84144.38    285.72968    20724    221435.22     49.68064    176.62602   -7.5586198   -20.025482     423.9035    23.538949    22.191806    6.0858521    429.98935    5422.1822   -23707.577 
  493900   -95928.516   -84124.905    286.63532    20724    221299.03   -91.796494    32.739507    4.2795874   -312.40858    423.71116    23.537049    22.190015    6.1820214    429.89318    5420.5123   -23726.556 
  494000   -95765.604   -84114.758    282.92563    20724    221122.18    74.354158    31.014894   -2.0218566    194.06944    423.57937    23.531303    22.184597    6.2479168    429.82728    5409.1289   -23737.552 
  494100   -95799.457   -84142.781    283.06718    20724    221224.21   -103.28125   -8.9740093   -398.15014    97.280407    423.88073    23.528362    22.181825    6.0972353    429.97796    5439.3498   -23728.614 
  494200   -95721.375    -84178.18    280.31145    20724    220976.97    95.714059   -58.013252    124.11024    221.04518    423.78416    23.517891    22.171952    6.1455216    429.92968    5467.6496   -23739.986 
  494300   -95808.545   -84162.236    282.81544    20724    221191.11    23.768933   -30.435663    163.46084   -61.718374    423.86974    23.526907    22.180453    6.1027281    429.97247    5452.8865    -23735.89 
  494400   -95659.826   -84191.983    278.48164    20724    221055.72     36.51914   -293.40025    130.36614    272.59153    423.66955    23.525262    22.178902    6.2028266    429.87237    5455.1489   -23713.861 
  494500    -95829.75   -84173.694    283.05214    20724    220858.87     2.503493    1.6702577    117.95246   -112.11224    423.57357    23.517449    22.171536    6.2508167    429.82438    5457.7234   -23743.034 
  494600   -95763.885   -84187.798    281.11018    20724    220878.58    39.664714    213.12052   -88.605215   -5.5211668    423.54285    23.519351    22.173329    6.2661756    429.80902    5453.3455   -23726.011 
  494700   -95804.646   -84165.468    282.64227    20724    221081.25   -75.987337   -1.6438393   -361.47303    135.15486    424.17562    23.512582    22.166948    5.9497903    430.12541    5460.2368     -23744.4 
  494800   -95769.782   -84167.639    281.74293    20724    220855.84     83.75917   -136.55995    325.39603    62.441424    423.99842    23.505503    22.160273    6.0383888    430.03681    5465.3235   -23764.862 
  494900    -95734.32    -84200.68    280.07943    20724    220878.71    46.837028    33.203486    195.55487   -88.247268    424.02934    23.505863    22.160613    6.0229285    430.05227    5476.8357   -23741.737 
  495000   -95725.685   -84196.938    279.96059    20724    221289.07    82.143121    50.547556    151.98907    43.892739     423.9267    23.530536    22.183874    6.0742508    430.00095     5485.979   -23745.532 
  495100   -95750.359   -84227.957    279.80652    20724     221036.7    105.96721    -73.53416    7.3477557    384.08802    423.93607    23.516854    22.170975    6.0695673    430.00563     5486.097   -23724.058 
  495200   -95741.895   -84227.722     279.6067    20724    221355.08    3.2839819    130.89896   -116.54889   -4.4981267    424.12422    23.528564    22.182015     5.975489    430.09971     5479.894    -23707.01 
  495300   -95756.525   -84169.561    281.37432    20724    221330.49   -12.451843   -3.7984792   -4.0083062   -29.548744    424.33123    23.521518    22.175372    5.8719857    430.20321    5476.3466   -23761.848 
  495400   -95778.447   -84173.818     281.8033    20724    221258.02    71.989263    10.778765    41.414933    163.77409    424.18434    23.521738     22.17558    5.9454311    430.12977     5483.023    -23773.36 
  495500   -95769.104   -84140.209    282.39255    20724    221594.85    51.951267    181.96469    80.539857   -106.65075    424.26052    23.537522     22.19046    5.9073376    430.16786    5476.1246   -23787.598 
  495600   -95738.423   -84211.295    279.92129    20724    221188.71    41.539747    140.76698    298.84399   -314.99173    424.16766    23.518516    22.172542    5.9537689    430.12143    5499.1713   -23755.692 
  495700   -95731.858   -84190.844    280.25848    20724    221421.38    55.072082    105.58572    59.036987   0.59354208    424.53749    23.520631    22.174536    5.7688534    430.30635    5515.7762   -23786.479 
  495800   -95867.015   -84211.328    283.04318    20724    221333.22   -12.269558   -60.310874   -206.40973    229.91193     424.6503    23.512824    22.167176    5.7124509    430.36275    5517.8785   -23770.487 
  495900   -95791.482    -84163.84    282.36216    20724    221439.52    -100.4212   -174.70222   -1.3593217   -125.20207    424.43464    23.524444    22.178131     5.820279    430.25492     5486.264   -23779.576 
  496000   -95802.395   -84200.117     281.7462    20724    221285.68   -8.3152456    15.841961    365.25014   -406.03784    424.37435    23.517941       22.172    5.8504237    430.22478    5505.9471   -23776.904 
  496100   -95766.442   -84184.871    281.24336    20724     221182.4   -42.920048    -122.7212    133.40122   -139.44016    424.24915    23.515922    22.170096    5.9130228    430.16218    5495.4817   -23782.526 
  496200   -95868.535   -84192.047    283.54828    20724    221159.04   -23.853471    -120.4056     126.8097   -77.964508    424.44671    23.509207    22.163765    5.8142456    430.26095    5535.9454   -23820.096 
  496300   -95809.004   -84234.884    281.06242    20724    221492.16   -32.364674     -75.0287    -52.45006    30.384739    424.62925    23.521848    22.175683    5.7229749    430.35223    5546.2732   -23777.057 
  496400   -95876.986   -84226.633    282.91364    20724    221259.75     -14.7165   -171.92462    145.69434   -17.919217     424.1503    23.522774    22.176556    5.9624482    430.11275    5529.2373   -23780.022 
  496500    -95784.36   -84199.468    281.32402    20724    221640.33    113.72062    20.616123   -130.34664    450.89238    424.30966    23.538574    22.191452    5.8827675    430.19243    5533.3599   -23805.169 
  496600   -95734.237   -84157.974    281.11448    20724    221408.77    24.305511    154.13125   -160.93063    79.715914      424.021    23.534282    22.187405     6.027101     430.0481    5532.8699   -23849.943 
  496700   -95779.075    -84178.11    281.71432    20724    221432.32   -127.80014   -173.29949    189.94019   -400.04113    424.18658    23.530939    22.184254    5.9443098    430.13089    5541.8872   -23832.804 
  496800   -95667.839   -84186.196    278.81673    20724    221380.23    46.864154    132.62964    9.5636059   -1.6007849    424.18008    23.528351    22.181814     5.947559    430.12764    5524.7337   -23818.825 
  496900   -95855.024   -84214.374    282.67803    20724    221392.12    26.263394    24.891349   -344.63121    398.53004    424.11306    23.530842    22.184163     5.981072    430.09413    5549.4445   -23819.115 
  497000   -95741.845   -84190.748    280.50334    20724    221625.46    70.281919   -167.31856    203.43276    174.73155    424.31962    23.537508    22.190447    5.8777918    430.19741    5506.7652    -23791.38 
  497100   -95933.822   -84203.856    284.84694    20724    221735.08   -60.900796    66.559711   -203.07529   -46.186811    424.49692    23.538412    22.191299    5.7891421    430.28606    5509.9758   -23771.543 
  497200   -95734.408   -84213.759    279.76395    20724    221734.71   0.27765997     161.7375   -279.69631    118.79179    424.68175    23.533269     22.18645    5.6967263    430.37847    5521.2655   -23779.087 
  497300   -95938.647   -84207.678     284.8713    20724     221542.7    -64.49743   -236.89703   -274.53017    317.93491     424.5643    23.526331     22.17991    5.7554492    430.31975    5535.6362   -23808.804 
  497400   -95871.341   -84185.698    283.77062    20724    221678.22    40.225943    142.59044    295.57132   -317.48393    424.67827    23.530367    22.183715    5.6984662    430.37673    5522.1909   -23818.335 
  497500   -95687.277   -84108.986    281.16371    20724    221561.21    -28.31844   -55.945322    145.66511   -174.67511    425.06344    23.513496    22.167809    5.5058813    430.56932    5498.2862   -23872.082 
  497600   -95759.862   -84150.854    281.90963    20724    221393.89   -53.126528   -109.69947   -64.991283    15.311164      425.007    23.506176    22.160908    5.5340998     430.5411    5518.7928    -23859.35 
  497700   -95812.268    -84104.81    284.30038    20724    221529.41    6.9314178    122.62215    -279.9991    178.17121    425.04064    23.512439    22.166813    5.5172819    430.55792    5473.8266   -23860.322 
  497800   -95864.513   -84122.181    285.14723    20724    221422.37   -17.322352    -143.5218    150.06786   -58.513114    424.90842    23.510415    22.164905    5.5833915    430.49181    5485.8184   -23859.613 
  497900   -95701.989   -84119.046     281.2767    20724    221518.38    85.784437    95.262361   -148.31179    310.40274    424.85012    23.517125    22.171231    5.6125423    430.46266    5508.1036   -23885.341 
  498000   -95768.549   -84142.062    282.33409    20724    221368.04   -34.689493    179.22489   -181.37327   -101.92009     424.4859    23.519227    22.173212    5.7946502    430.28055    5528.0831     -23886.1 
  498100   -95717.533   -84120.365    281.62212    20724    221537.12   -25.352973   -243.42612   -166.43125    333.79844    424.68135    23.522792    22.176573    5.6969256    430.37827     5494.065   -23872.253 
  498200     -95753.8   -84166.765    281.37604    20724    221631.11   -3.7659747   -151.06744   -1.7618893    141.53141    424.82615    23.523772    22.177497    5.6245269    430.45067    5521.9284   -23850.375 
  498300   -95787.462   -84205.475    281.25346    20724    221335.87    54.036714   -21.068466    141.45665    41.721963    424.53817     23.51607    22.170236    5.7685152    430.30668    5520.5215   -23827.048 
  498400   -95847.422   -84196.528     282.9268    20724    221548.83    20.582043    182.56908   -78.926649     -41.8963    424.44473     23.52997     22.18334    5.8152336    430.25997    5510.8193   -23821.179 
  498500   -95868.761   -84193.119    283.52777    20724    221741.22    20.675069     255.5628   -250.92147    57.383876    424.64284    23.534692    22.187793    5.7161799    430.35902     5543.595   -23849.636 
  498600   -95801.852   -84184.391     282.1149    20724    221633.76   -141.19235   -100.10957   -293.52171   -29.945762    424.52932    23.532135    22.185381    5.7729388    430.30226    5525.9626   -23840.029 
  498700   -95769.284   -84203.361    280.86338    20724    221454.65   -17.662731    45.748288    -235.1209    136.38442    424.23472     23.53079    22.184114    5.9202401    430.15496    5513.2299   -23818.861 
  498800   -95871.819   -84232.189    282.65325    20724    221305.04    62.059587   -127.89119    426.07673   -112.00678    424.08013    23.527128    22.180661    5.9975361    430.07766    5537.3081   -23827.992 
  498900    -95978.65   -84262.348    284.51512    20724    221251.19   -31.019169   -116.66889    81.797775    -58.18639     423.9537    23.527772    22.181268    6.0607503    430.01445    5515.9018     -23777.3 
  499000   -95882.806   -84292.777    281.44873    20724    221289.91    73.081411   -40.265666    101.51015    157.99975    423.84551    23.532834     22.18604    6.1148453    429.96035    5539.4432   -23773.045 
  499100   -95924.099   -84334.362    281.44167    20724     221167.2    7.3255141    93.803245    164.81005   -236.63675    423.40985    23.538409    22.191296    6.3326735    429.74253    5546.8929   -23745.038 
  499200   -95923.703   -84312.307    281.96763    20724    221378.86   -6.6914485     32.71647   -96.968791    44.177976    423.89614    23.536157    22.189174    6.0895291    429.98567    5548.1164   -23761.193 
  499300   -95832.678   -84256.303    281.11718    20724    221214.37    69.771045    153.64682   -366.01795    421.68426    424.03675    23.523511    22.177251    6.0192262    430.05597    5535.0152   -23813.538 
  499400   -95951.171   -84263.625    283.81684    20724    220978.03    10.888198   -117.18173   -14.889679      164.736    423.47409    23.526555    22.180121    6.3005549    429.77465    5546.6363   -23825.605 
  499500   -95789.141   -84255.633    280.07621    20724    220869.82    36.037576    3.2881927   -2.7858324    107.61037    423.69893    23.514552    22.168805     6.188134    429.88707    5544.7507   -23834.062 
  499600   -95853.332    -84287.16    280.86942    20724    220960.35   -34.635468    51.719434   -210.33012    54.704285    423.51969    23.524348     22.17804    6.2777544    429.79745    5538.8519   -23793.326 
  499700   -95950.682   -84305.626    282.78499    20724    220756.87   -105.30972   -284.20447   -17.272396   -14.452296     423.5201    23.513502    22.167815     6.277552    429.79765    5537.3862   -23778.355 
  499800   -95942.021   -84333.073    281.90817    20724    220728.67   -17.476328    45.964574   -266.17406     167.7805    423.65312    23.508309    22.162919    6.2110376    429.86416    5556.9505   -23781.299 
  499900   -95966.646   -84275.172    283.91221    20724    220461.78   -4.3150247     31.04551    127.33834   -171.32892    423.46171    23.499401    22.154521    6.3067437    429.76846    5545.0532   -23837.396 
  500000   -95725.273    -84250.48    278.65039    20724    220711.65    146.99962   -258.94545    451.67808    248.26623    423.64488    23.507631     22.16228    6.2151606    429.86004    5539.1675   -23854.287 
Loop time of 51712.5 on 32 procs for 500000 steps with 20724 atoms

Performance: 1.671 ns/day, 14.365 hours/ns, 9.669 timesteps/s
97.3% CPU use with 32 MPI tasks x no OpenMP threads

MPI task timing breakdown:
Section |  min time  |  avg time  |  max time  |%varavg| %total
---------------------------------------------------------------
Pair    | 6430.9     | 9165.2     | 12946      |2515.5 | 17.72
Bond    | 0.36528    | 0.45454    | 0.55879    |   7.3 |  0.00
Kspace  | 7962.1     | 11758      | 14507      |2233.3 | 22.74
Neigh   | 8326.3     | 10350      | 12104      |1390.5 | 20.01
Comm    | 479.12     | 3797.6     | 7543.5     |4361.6 |  7.34
Output  | 4.8046     | 45.619     | 73.392     | 370.8 |  0.09
Modify  | 13100      | 16557      | 21661      |2427.8 | 32.02
Other   |            | 38.19      |            |       |  0.07

Nlocal:    647.625 ave 705 max 603 min
Histogram: 3 1 5 11 2 1 1 3 3 2
Nghost:    7440.38 ave 7906 max 6949 min
Histogram: 2 1 5 5 3 5 1 4 3 3
Neighs:    238740 ave 278026 max 215252 min
Histogram: 4 10 6 0 2 0 4 1 2 3
FullNghs:  477476 ave 555647 max 430148 min
Histogram: 4 10 6 0 2 0 4 0 4 2

Total # of neighbors = 15279238
Ave neighs/atom = 737.273
Ave special neighs/atom = 2
Neighbor list builds = 500000
Dangerous builds not checked
write_data production.R1
PPPM initialization ...
  extracting TIP4P info from pair style
WARNING: Using 12-bit tables for long-range coulomb (../kspace.cpp:316)
  G vector (1/distance) = 0.345929
  grid = 400 48 48
  stencil order = 5
  estimated absolute RMS force accuracy = 0.000401587
  estimated relative force accuracy = 1.20937e-06
  using double precision FFTs
  3d grid and FFT values/proc = 67260 38400
write_restart restartproduction.R1
PPPM initialization ...
  extracting TIP4P info from pair style
WARNING: Using 12-bit tables for long-range coulomb (../kspace.cpp:316)
  G vector (1/distance) = 0.345929
  grid = 400 48 48
  stencil order = 5
  estimated absolute RMS force accuracy = 0.000401587
  estimated relative force accuracy = 1.20937e-06
  using double precision FFTs
  3d grid and FFT values/proc = 67260 38400
Total wall time: 14:21:53
